
.Version 7.0.5 of ABINIT 
.(MPI version, prepared for a x86_64_none_intel12.1 computer) 

.Copyright (C) 1998-2012 ABINIT group . 
 ABINIT comes with ABSOLUTELY NO WARRANTY.
 It is free software, and you are welcome to redistribute it
 under certain conditions (GNU General Public License,
 see ~abinit/COPYING or http://www.gnu.org/copyleft/gpl.txt).

 ABINIT is a project of the Universite Catholique de Louvain,
 Corning Inc. and other collaborators, see ~abinit/doc/developers/contributors.txt .
 Please read ~abinit/doc/users/acknowledgments.html for suggested
 acknowledgments of the ABINIT effort.
 For more information, see http://www.abinit.org .

.Starting date : Tue 22 Oct 2013.
- ( at 10h35 )
  
- input  file    -> 65Ha_50h_c16h8_alt.in
- output file    -> 65Ha_50h_c16h8_alt.out
- root for input  files -> 65Ha_50h_c16h8_alti
- root for output files -> 65Ha_50h_c16h8_alto


 DATASET    1 : space group P1 (#  1); Bravais aP (primitive triclinic)
================================================================================
 Values of the parameters that define the memory need for DATASET  1.
   intxc =         0  ionmov =         0    iscf =         7 xclevel =         1
  lmnmax =         2   lnmax =         2   mband =        20  mffmem =         1
P  mgfft =       256   mkmem =       172 mpssoang=         3     mpw =     25441
  mqgrid =     12703   natom =         6    nfft =    491520    nkpt =       172
  nloalg =         4  nspden =         1 nspinor =         2  nsppol =         1
    nsym =         1  n1xccc =         0  ntypat =         2  occopt =         1
================================================================================
P This job should need less than                    2855.580 Mbytes of memory.
  Rough estimation (10% accuracy) of disk space for files :
  WF disk file :   1335.406 Mbytes ; DEN or POT disk file :      3.752 Mbytes.
================================================================================

--------------------------------------------------------------------------------
------------- Echo of variables that govern the present computation ------------
--------------------------------------------------------------------------------
-
- outvars: echo of selected default values                                      
-   accesswff0 =  0 , fftalg0 =112 , wfoptalg0 =  0
-
- outvars: echo of global parameters not present in the input file              
-  max_nthreads =    0
-
 -outvars: echo values of preprocessed input variables --------
            acell      4.3936129230E+00  7.6099265560E+00  3.5000000000E+01 Bohr
              amu      1.00794000E+00  1.20110000E+01
           diemac      1.20000000E+01
             ecut      6.50000000E+01 Hartree
           istwfk        0    0    0    0    0    0    0    0    0    0
                         0    0    0    0    0    0    0    0    0    0
                         0    0    0    0    0    0    0    0    0    0
                         0    0    0    0    0    0    0    0    0    0
                         0    0    0    0    0    0    0    0    0    0
                         0    0    0    0    0    0    0    0    0    0
                         0    0    0    0    0    0    0    0    0    0
                         0    0    0    0    0    0    0    0    0    0
                         0    0    0    0    0    0    0    0    0    0
                         0    0    0    0    0    0    0    0    0    0
                         0    0    0    0    0    0    0    0    0    0
                         0    0    0    0    0    0    0    0    0    0
                         0    0    0    0    0    0    0    0    0    0
                         0    0    0    0    0    0    0    0    0    0
                         0    0    0    0    0    0    0    1    0    0
                         0    0    0    0    0    0    0    0    0    0
                         0    0    0    0    0    0    0    0    0    0
                         0    0
           jdtset        1
              kpt      0.00000000E+00  0.00000000E+00  7.14285714E-02
                       1.42857143E-01  0.00000000E+00  7.14285714E-02
                       2.85714286E-01  0.00000000E+00  7.14285714E-02
                       4.28571429E-01  0.00000000E+00  7.14285714E-02
                      -4.28571429E-01  0.00000000E+00  7.14285714E-02
                      -2.85714286E-01  0.00000000E+00  7.14285714E-02
                      -1.42857143E-01  0.00000000E+00  7.14285714E-02
                       0.00000000E+00  1.42857143E-01  7.14285714E-02
                       1.42857143E-01  1.42857143E-01  7.14285714E-02
                       2.85714286E-01  1.42857143E-01  7.14285714E-02
                       4.28571429E-01  1.42857143E-01  7.14285714E-02
                      -4.28571429E-01  1.42857143E-01  7.14285714E-02
                      -2.85714286E-01  1.42857143E-01  7.14285714E-02
                      -1.42857143E-01  1.42857143E-01  7.14285714E-02
                       0.00000000E+00  2.85714286E-01  7.14285714E-02
                       1.42857143E-01  2.85714286E-01  7.14285714E-02
                       2.85714286E-01  2.85714286E-01  7.14285714E-02
                       4.28571429E-01  2.85714286E-01  7.14285714E-02
                      -4.28571429E-01  2.85714286E-01  7.14285714E-02
                      -2.85714286E-01  2.85714286E-01  7.14285714E-02
                      -1.42857143E-01  2.85714286E-01  7.14285714E-02
                       0.00000000E+00  4.28571429E-01  7.14285714E-02
                       1.42857143E-01  4.28571429E-01  7.14285714E-02
                       2.85714286E-01  4.28571429E-01  7.14285714E-02
                       4.28571429E-01  4.28571429E-01  7.14285714E-02
                      -4.28571429E-01  4.28571429E-01  7.14285714E-02
                      -2.85714286E-01  4.28571429E-01  7.14285714E-02
                      -1.42857143E-01  4.28571429E-01  7.14285714E-02
                       0.00000000E+00 -4.28571429E-01  7.14285714E-02
                       1.42857143E-01 -4.28571429E-01  7.14285714E-02
                       2.85714286E-01 -4.28571429E-01  7.14285714E-02
                       4.28571429E-01 -4.28571429E-01  7.14285714E-02
                      -4.28571429E-01 -4.28571429E-01  7.14285714E-02
                      -2.85714286E-01 -4.28571429E-01  7.14285714E-02
                      -1.42857143E-01 -4.28571429E-01  7.14285714E-02
                       0.00000000E+00 -2.85714286E-01  7.14285714E-02
                       1.42857143E-01 -2.85714286E-01  7.14285714E-02
                       2.85714286E-01 -2.85714286E-01  7.14285714E-02
                       4.28571429E-01 -2.85714286E-01  7.14285714E-02
                      -4.28571429E-01 -2.85714286E-01  7.14285714E-02
                      -2.85714286E-01 -2.85714286E-01  7.14285714E-02
                      -1.42857143E-01 -2.85714286E-01  7.14285714E-02
                       0.00000000E+00 -1.42857143E-01  7.14285714E-02
                       1.42857143E-01 -1.42857143E-01  7.14285714E-02
                       2.85714286E-01 -1.42857143E-01  7.14285714E-02
                       4.28571429E-01 -1.42857143E-01  7.14285714E-02
                      -4.28571429E-01 -1.42857143E-01  7.14285714E-02
                      -2.85714286E-01 -1.42857143E-01  7.14285714E-02
                      -1.42857143E-01 -1.42857143E-01  7.14285714E-02
                       0.00000000E+00  0.00000000E+00  2.14285714E-01
                       1.42857143E-01  0.00000000E+00  2.14285714E-01
                       2.85714286E-01  0.00000000E+00  2.14285714E-01
                       4.28571429E-01  0.00000000E+00  2.14285714E-01
                      -4.28571429E-01  0.00000000E+00  2.14285714E-01
                      -2.85714286E-01  0.00000000E+00  2.14285714E-01
                      -1.42857143E-01  0.00000000E+00  2.14285714E-01
                       0.00000000E+00  1.42857143E-01  2.14285714E-01
                       1.42857143E-01  1.42857143E-01  2.14285714E-01
                       2.85714286E-01  1.42857143E-01  2.14285714E-01
                       4.28571429E-01  1.42857143E-01  2.14285714E-01
                      -4.28571429E-01  1.42857143E-01  2.14285714E-01
                      -2.85714286E-01  1.42857143E-01  2.14285714E-01
                      -1.42857143E-01  1.42857143E-01  2.14285714E-01
                       0.00000000E+00  2.85714286E-01  2.14285714E-01
                       1.42857143E-01  2.85714286E-01  2.14285714E-01
                       2.85714286E-01  2.85714286E-01  2.14285714E-01
                       4.28571429E-01  2.85714286E-01  2.14285714E-01
                      -4.28571429E-01  2.85714286E-01  2.14285714E-01
                      -2.85714286E-01  2.85714286E-01  2.14285714E-01
                      -1.42857143E-01  2.85714286E-01  2.14285714E-01
                       0.00000000E+00  4.28571429E-01  2.14285714E-01
                       1.42857143E-01  4.28571429E-01  2.14285714E-01
                       2.85714286E-01  4.28571429E-01  2.14285714E-01
                       4.28571429E-01  4.28571429E-01  2.14285714E-01
                      -4.28571429E-01  4.28571429E-01  2.14285714E-01
                      -2.85714286E-01  4.28571429E-01  2.14285714E-01
                      -1.42857143E-01  4.28571429E-01  2.14285714E-01
                       0.00000000E+00 -4.28571429E-01  2.14285714E-01
                       1.42857143E-01 -4.28571429E-01  2.14285714E-01
                       2.85714286E-01 -4.28571429E-01  2.14285714E-01
                       4.28571429E-01 -4.28571429E-01  2.14285714E-01
                      -4.28571429E-01 -4.28571429E-01  2.14285714E-01
                      -2.85714286E-01 -4.28571429E-01  2.14285714E-01
                      -1.42857143E-01 -4.28571429E-01  2.14285714E-01
                       0.00000000E+00 -2.85714286E-01  2.14285714E-01
                       1.42857143E-01 -2.85714286E-01  2.14285714E-01
                       2.85714286E-01 -2.85714286E-01  2.14285714E-01
                       4.28571429E-01 -2.85714286E-01  2.14285714E-01
                      -4.28571429E-01 -2.85714286E-01  2.14285714E-01
                      -2.85714286E-01 -2.85714286E-01  2.14285714E-01
                      -1.42857143E-01 -2.85714286E-01  2.14285714E-01
                       0.00000000E+00 -1.42857143E-01  2.14285714E-01
                       1.42857143E-01 -1.42857143E-01  2.14285714E-01
                       2.85714286E-01 -1.42857143E-01  2.14285714E-01
                       4.28571429E-01 -1.42857143E-01  2.14285714E-01
                      -4.28571429E-01 -1.42857143E-01  2.14285714E-01
                      -2.85714286E-01 -1.42857143E-01  2.14285714E-01
                      -1.42857143E-01 -1.42857143E-01  2.14285714E-01
                       0.00000000E+00  0.00000000E+00  3.57142857E-01
                       1.42857143E-01  0.00000000E+00  3.57142857E-01
                       2.85714286E-01  0.00000000E+00  3.57142857E-01
                       4.28571429E-01  0.00000000E+00  3.57142857E-01
                      -4.28571429E-01  0.00000000E+00  3.57142857E-01
                      -2.85714286E-01  0.00000000E+00  3.57142857E-01
                      -1.42857143E-01  0.00000000E+00  3.57142857E-01
                       0.00000000E+00  1.42857143E-01  3.57142857E-01
                       1.42857143E-01  1.42857143E-01  3.57142857E-01
                       2.85714286E-01  1.42857143E-01  3.57142857E-01
                       4.28571429E-01  1.42857143E-01  3.57142857E-01
                      -4.28571429E-01  1.42857143E-01  3.57142857E-01
                      -2.85714286E-01  1.42857143E-01  3.57142857E-01
                      -1.42857143E-01  1.42857143E-01  3.57142857E-01
                       0.00000000E+00  2.85714286E-01  3.57142857E-01
                       1.42857143E-01  2.85714286E-01  3.57142857E-01
                       2.85714286E-01  2.85714286E-01  3.57142857E-01
                       4.28571429E-01  2.85714286E-01  3.57142857E-01
                      -4.28571429E-01  2.85714286E-01  3.57142857E-01
                      -2.85714286E-01  2.85714286E-01  3.57142857E-01
                      -1.42857143E-01  2.85714286E-01  3.57142857E-01
                       0.00000000E+00  4.28571429E-01  3.57142857E-01
                       1.42857143E-01  4.28571429E-01  3.57142857E-01
                       2.85714286E-01  4.28571429E-01  3.57142857E-01
                       4.28571429E-01  4.28571429E-01  3.57142857E-01
                      -4.28571429E-01  4.28571429E-01  3.57142857E-01
                      -2.85714286E-01  4.28571429E-01  3.57142857E-01
                      -1.42857143E-01  4.28571429E-01  3.57142857E-01
                       0.00000000E+00 -4.28571429E-01  3.57142857E-01
                       1.42857143E-01 -4.28571429E-01  3.57142857E-01
                       2.85714286E-01 -4.28571429E-01  3.57142857E-01
                       4.28571429E-01 -4.28571429E-01  3.57142857E-01
                      -4.28571429E-01 -4.28571429E-01  3.57142857E-01
                      -2.85714286E-01 -4.28571429E-01  3.57142857E-01
                      -1.42857143E-01 -4.28571429E-01  3.57142857E-01
                       0.00000000E+00 -2.85714286E-01  3.57142857E-01
                       1.42857143E-01 -2.85714286E-01  3.57142857E-01
                       2.85714286E-01 -2.85714286E-01  3.57142857E-01
                       4.28571429E-01 -2.85714286E-01  3.57142857E-01
                      -4.28571429E-01 -2.85714286E-01  3.57142857E-01
                      -2.85714286E-01 -2.85714286E-01  3.57142857E-01
                      -1.42857143E-01 -2.85714286E-01  3.57142857E-01
                       0.00000000E+00 -1.42857143E-01  3.57142857E-01
                       1.42857143E-01 -1.42857143E-01  3.57142857E-01
                       2.85714286E-01 -1.42857143E-01  3.57142857E-01
                       4.28571429E-01 -1.42857143E-01  3.57142857E-01
                      -4.28571429E-01 -1.42857143E-01  3.57142857E-01
                      -2.85714286E-01 -1.42857143E-01  3.57142857E-01
                      -1.42857143E-01 -1.42857143E-01  3.57142857E-01
                       0.00000000E+00  0.00000000E+00  5.00000000E-01
                       1.42857143E-01  0.00000000E+00  5.00000000E-01
                       2.85714286E-01  0.00000000E+00  5.00000000E-01
                       4.28571429E-01  0.00000000E+00  5.00000000E-01
                       0.00000000E+00  1.42857143E-01  5.00000000E-01
                       1.42857143E-01  1.42857143E-01  5.00000000E-01
                       2.85714286E-01  1.42857143E-01  5.00000000E-01
                       4.28571429E-01  1.42857143E-01  5.00000000E-01
                      -4.28571429E-01  1.42857143E-01  5.00000000E-01
                      -2.85714286E-01  1.42857143E-01  5.00000000E-01
                      -1.42857143E-01  1.42857143E-01  5.00000000E-01
                       0.00000000E+00  2.85714286E-01  5.00000000E-01
                       1.42857143E-01  2.85714286E-01  5.00000000E-01
                       2.85714286E-01  2.85714286E-01  5.00000000E-01
                       4.28571429E-01  2.85714286E-01  5.00000000E-01
                      -4.28571429E-01  2.85714286E-01  5.00000000E-01
                      -2.85714286E-01  2.85714286E-01  5.00000000E-01
                      -1.42857143E-01  2.85714286E-01  5.00000000E-01
                       0.00000000E+00  4.28571429E-01  5.00000000E-01
                       1.42857143E-01  4.28571429E-01  5.00000000E-01
                       2.85714286E-01  4.28571429E-01  5.00000000E-01
                       4.28571429E-01  4.28571429E-01  5.00000000E-01
                      -4.28571429E-01  4.28571429E-01  5.00000000E-01
                      -2.85714286E-01  4.28571429E-01  5.00000000E-01
                      -1.42857143E-01  4.28571429E-01  5.00000000E-01
         kptrlatt        7    0    0      0    7    0      0    0    7
          kptrlen      3.07552905E+01
P           mkmem         172
            natom           6
            nband          20
           ndtset           1
            ngfft          32      60     256
             nkpt         172
          nspinor           2
            nstep         200
             nsym           1
           ntypat           2
              occ      1.000000  1.000000  1.000000  1.000000  1.000000  1.000000
                       1.000000  1.000000  1.000000  1.000000  1.000000  1.000000
                       1.000000  1.000000  1.000000  1.000000  1.000000  1.000000
                       0.000000  0.000000
           prtden           0
           prtvol          -1
            rprim      8.6602540378E-01 -5.0000000000E-01  0.0000000000E+00
                       0.0000000000E+00  1.0000000000E+00  0.0000000000E+00
                       0.0000000000E+00  0.0000000000E+00  1.0000000000E+00
           shiftk      0.00000000E+00  0.00000000E+00  5.00000000E-01
           so_psp           2       2
          spgroup           1
           toldfe      1.00000000E-06 Hartree
            typat      1  2  2  2  2  1
              wtk        0.00583    0.00583    0.00583    0.00583    0.00583    0.00583
                         0.00583    0.00583    0.00583    0.00583    0.00583    0.00583
                         0.00583    0.00583    0.00583    0.00583    0.00583    0.00583
                         0.00583    0.00583    0.00583    0.00583    0.00583    0.00583
                         0.00583    0.00583    0.00583    0.00583    0.00583    0.00583
                         0.00583    0.00583    0.00583    0.00583    0.00583    0.00583
                         0.00583    0.00583    0.00583    0.00583    0.00583    0.00583
                         0.00583    0.00583    0.00583    0.00583    0.00583    0.00583
                         0.00583    0.00583    0.00583    0.00583    0.00583    0.00583
                         0.00583    0.00583    0.00583    0.00583    0.00583    0.00583
                         0.00583    0.00583    0.00583    0.00583    0.00583    0.00583
                         0.00583    0.00583    0.00583    0.00583    0.00583    0.00583
                         0.00583    0.00583    0.00583    0.00583    0.00583    0.00583
                         0.00583    0.00583    0.00583    0.00583    0.00583    0.00583
                         0.00583    0.00583    0.00583    0.00583    0.00583    0.00583
                         0.00583    0.00583    0.00583    0.00583    0.00583    0.00583
                         0.00583    0.00583    0.00583    0.00583    0.00583    0.00583
                         0.00583    0.00583    0.00583    0.00583    0.00583    0.00583
                         0.00583    0.00583    0.00583    0.00583    0.00583    0.00583
                         0.00583    0.00583    0.00583    0.00583    0.00583    0.00583
                         0.00583    0.00583    0.00583    0.00583    0.00583    0.00583
                         0.00583    0.00583    0.00583    0.00583    0.00583    0.00583
                         0.00583    0.00583    0.00583    0.00583    0.00583    0.00583
                         0.00583    0.00583    0.00583    0.00583    0.00583    0.00583
                         0.00583    0.00583    0.00583    0.00292    0.00583    0.00583
                         0.00583    0.00583    0.00583    0.00583    0.00583    0.00583
                         0.00583    0.00583    0.00583    0.00583    0.00583    0.00583
                         0.00583    0.00583    0.00583    0.00583    0.00583    0.00583
                         0.00583    0.00583    0.00583    0.00583
           xangst      2.4606736649E+00  1.0781767705E+00  1.0796354981E+01
                       2.4606736649E+00  1.3898759377E+00  1.1872401233E+01
                       3.6910105822E+00  2.1858546131E+00  1.2110582882E+01
                       3.6910105812E+00  3.4968453740E+00  1.2426805369E+01
                       2.4606736659E+00  3.0828759780E-02  1.2665047485E+01
                       2.4606736649E+00  3.4243625980E-01  1.3741104522E+01
            xcart      4.6499993290E+00  2.0374588190E+00  2.0402154147E+01
                       4.6499993290E+00  2.6264848810E+00  2.2435586871E+01
                       6.9749991540E+00  4.1306665850E+00  2.2885684957E+01
                       6.9749991520E+00  6.6080800860E+00  2.3483258854E+01
                       4.6499993310E+00  5.8257913000E-02  2.3933471206E+01
                       4.6499993290E+00  6.4711074900E-01  2.5966924309E+01
             xred      1.2220823324E+00  6.2052335835E-01  5.8291868991E-01
                       1.2220823324E+00  6.9792569038E-01  6.4101676774E-01
                       1.8331235408E+00  1.0719793633E+00  6.5387671306E-01
                       1.8331235403E+00  1.3975296142E+00  6.7095025297E-01
                       1.2220823329E+00  3.6044188578E-01  6.8381346303E-01
                       1.2220823324E+00  4.3782145449E-01  7.4191212311E-01
            znucl        1.00000    6.00000

================================================================================

 chkinp: Checking input parameters for consistency, jdtset=   1.

 abinit : before driver, prtvol=-1, debugging mode => will skip driver

== END DATASET(S) ==============================================================
================================================================================

 abinit : before driver, prtvol=-1, debugging mode => will skip outvars


- Timing analysis has been suppressed with timopt=0



 abinit : before driver, prtvol=-1, debugging mode => will skip acknowledgments
-
- Proc.   0 individual time (sec): cpu=          0.3  wall=          0.4

================================================================================

 Calculation completed.
.Delivered    1 WARNINGs and   2 COMMENTs to log file.
+Overall time at end (sec) : cpu=          0.3  wall=          0.4
