
.Version 7.0.5 of ABINIT 
.(MPI version, prepared for a x86_64_none_intel12.1 computer) 

.Copyright (C) 1998-2012 ABINIT group . 
 ABINIT comes with ABSOLUTELY NO WARRANTY.
 It is free software, and you are welcome to redistribute it
 under certain conditions (GNU General Public License,
 see ~abinit/COPYING or http://www.gnu.org/copyleft/gpl.txt).

 ABINIT is a project of the Universite Catholique de Louvain,
 Corning Inc. and other collaborators, see ~abinit/doc/developers/contributors.txt .
 Please read ~abinit/doc/users/acknowledgments.html for suggested
 acknowledgments of the ABINIT effort.
 For more information, see http://www.abinit.org .

.Starting date : Sat 24 May 2014.
- ( at 12h51 )
  
- input  file    -> 35Ha_35Z_50h_c16h8_up.in
- output file    -> 35Ha_35Z_50h_c16h8_up.out
- root for input  files -> 35Ha_35Z_50h_c16h8_upi
- root for output files -> 35Ha_35Z_50h_c16h8_upo


 DATASET    1 : space group P1 (#  1); Bravais aP (primitive triclinic)
================================================================================
 Values of the parameters that define the memory need for DATASET  1.
   intxc =         0  ionmov =         0    iscf =         7 xclevel =         1
  lmnmax =         2   lnmax =         2   mband =        12  mffmem =         1
P  mgfft =       192   mkmem =       172 mpssoang=         3     mpw =     11263
  mqgrid =      9322   natom =         3    nfft =    233280    nkpt =       172
  nloalg =         4  nspden =         1 nspinor =         2  nsppol =         1
    nsym =         1  n1xccc =         0  ntypat =         2  occopt =         1
================================================================================
P This job should need less than                     795.246 Mbytes of memory.
  Rough estimation (10% accuracy) of disk space for files :
  WF disk file :    354.721 Mbytes ; DEN or POT disk file :      1.782 Mbytes.
================================================================================

--------------------------------------------------------------------------------
------------- Echo of variables that govern the present computation ------------
--------------------------------------------------------------------------------
-
- outvars: echo of selected default values                                      
-   accesswff0 =  0 , fftalg0 =112 , wfoptalg0 =  0
-
- outvars: echo of global parameters not present in the input file              
-  max_nthreads =    0
-
 -outvars: echo values of preprocessed input variables --------
            acell      4.6499996960E+00  8.0540353180E+00  3.5000000000E+01 Bohr
              amu      1.20110000E+01  1.00794000E+00
           diemac      1.20000000E+01
             ecut      3.50000000E+01 Hartree
           istwfk        0    0    0    0    0    0    0    0    0    0
                         0    0    0    0    0    0    0    0    0    0
                         0    0    0    0    0    0    0    0    0    0
                         0    0    0    0    0    0    0    0    0    0
                         0    0    0    0    0    0    0    0    0    0
                         0    0    0    0    0    0    0    0    0    0
                         0    0    0    0    0    0    0    0    0    0
                         0    0    0    0    0    0    0    0    0    0
                         0    0    0    0    0    0    0    0    0    0
                         0    0    0    0    0    0    0    0    0    0
                         0    0    0    0    0    0    0    0    0    0
                         0    0    0    0    0    0    0    0    0    0
                         0    0    0    0    0    0    0    0    0    0
                         0    0    0    0    0    0    0    0    0    0
                         0    0    0    0    0    0    0    1    0    0
                         0    0    0    0    0    0    0    0    0    0
                         0    0    0    0    0    0    0    0    0    0
                         0    0
           jdtset        1
              kpt      0.00000000E+00  0.00000000E+00  7.14285714E-02
                       1.42857143E-01  0.00000000E+00  7.14285714E-02
                       2.85714286E-01  0.00000000E+00  7.14285714E-02
                       4.28571429E-01  0.00000000E+00  7.14285714E-02
                      -4.28571429E-01  0.00000000E+00  7.14285714E-02
                      -2.85714286E-01  0.00000000E+00  7.14285714E-02
                      -1.42857143E-01  0.00000000E+00  7.14285714E-02
                       0.00000000E+00  1.42857143E-01  7.14285714E-02
                       1.42857143E-01  1.42857143E-01  7.14285714E-02
                       2.85714286E-01  1.42857143E-01  7.14285714E-02
                       4.28571429E-01  1.42857143E-01  7.14285714E-02
                      -4.28571429E-01  1.42857143E-01  7.14285714E-02
                      -2.85714286E-01  1.42857143E-01  7.14285714E-02
                      -1.42857143E-01  1.42857143E-01  7.14285714E-02
                       0.00000000E+00  2.85714286E-01  7.14285714E-02
                       1.42857143E-01  2.85714286E-01  7.14285714E-02
                       2.85714286E-01  2.85714286E-01  7.14285714E-02
                       4.28571429E-01  2.85714286E-01  7.14285714E-02
                      -4.28571429E-01  2.85714286E-01  7.14285714E-02
                      -2.85714286E-01  2.85714286E-01  7.14285714E-02
                      -1.42857143E-01  2.85714286E-01  7.14285714E-02
                       0.00000000E+00  4.28571429E-01  7.14285714E-02
                       1.42857143E-01  4.28571429E-01  7.14285714E-02
                       2.85714286E-01  4.28571429E-01  7.14285714E-02
                       4.28571429E-01  4.28571429E-01  7.14285714E-02
                      -4.28571429E-01  4.28571429E-01  7.14285714E-02
                      -2.85714286E-01  4.28571429E-01  7.14285714E-02
                      -1.42857143E-01  4.28571429E-01  7.14285714E-02
                       0.00000000E+00 -4.28571429E-01  7.14285714E-02
                       1.42857143E-01 -4.28571429E-01  7.14285714E-02
                       2.85714286E-01 -4.28571429E-01  7.14285714E-02
                       4.28571429E-01 -4.28571429E-01  7.14285714E-02
                      -4.28571429E-01 -4.28571429E-01  7.14285714E-02
                      -2.85714286E-01 -4.28571429E-01  7.14285714E-02
                      -1.42857143E-01 -4.28571429E-01  7.14285714E-02
                       0.00000000E+00 -2.85714286E-01  7.14285714E-02
                       1.42857143E-01 -2.85714286E-01  7.14285714E-02
                       2.85714286E-01 -2.85714286E-01  7.14285714E-02
                       4.28571429E-01 -2.85714286E-01  7.14285714E-02
                      -4.28571429E-01 -2.85714286E-01  7.14285714E-02
                      -2.85714286E-01 -2.85714286E-01  7.14285714E-02
                      -1.42857143E-01 -2.85714286E-01  7.14285714E-02
                       0.00000000E+00 -1.42857143E-01  7.14285714E-02
                       1.42857143E-01 -1.42857143E-01  7.14285714E-02
                       2.85714286E-01 -1.42857143E-01  7.14285714E-02
                       4.28571429E-01 -1.42857143E-01  7.14285714E-02
                      -4.28571429E-01 -1.42857143E-01  7.14285714E-02
                      -2.85714286E-01 -1.42857143E-01  7.14285714E-02
                      -1.42857143E-01 -1.42857143E-01  7.14285714E-02
                       0.00000000E+00  0.00000000E+00  2.14285714E-01
                       1.42857143E-01  0.00000000E+00  2.14285714E-01
                       2.85714286E-01  0.00000000E+00  2.14285714E-01
                       4.28571429E-01  0.00000000E+00  2.14285714E-01
                      -4.28571429E-01  0.00000000E+00  2.14285714E-01
                      -2.85714286E-01  0.00000000E+00  2.14285714E-01
                      -1.42857143E-01  0.00000000E+00  2.14285714E-01
                       0.00000000E+00  1.42857143E-01  2.14285714E-01
                       1.42857143E-01  1.42857143E-01  2.14285714E-01
                       2.85714286E-01  1.42857143E-01  2.14285714E-01
                       4.28571429E-01  1.42857143E-01  2.14285714E-01
                      -4.28571429E-01  1.42857143E-01  2.14285714E-01
                      -2.85714286E-01  1.42857143E-01  2.14285714E-01
                      -1.42857143E-01  1.42857143E-01  2.14285714E-01
                       0.00000000E+00  2.85714286E-01  2.14285714E-01
                       1.42857143E-01  2.85714286E-01  2.14285714E-01
                       2.85714286E-01  2.85714286E-01  2.14285714E-01
                       4.28571429E-01  2.85714286E-01  2.14285714E-01
                      -4.28571429E-01  2.85714286E-01  2.14285714E-01
                      -2.85714286E-01  2.85714286E-01  2.14285714E-01
                      -1.42857143E-01  2.85714286E-01  2.14285714E-01
                       0.00000000E+00  4.28571429E-01  2.14285714E-01
                       1.42857143E-01  4.28571429E-01  2.14285714E-01
                       2.85714286E-01  4.28571429E-01  2.14285714E-01
                       4.28571429E-01  4.28571429E-01  2.14285714E-01
                      -4.28571429E-01  4.28571429E-01  2.14285714E-01
                      -2.85714286E-01  4.28571429E-01  2.14285714E-01
                      -1.42857143E-01  4.28571429E-01  2.14285714E-01
                       0.00000000E+00 -4.28571429E-01  2.14285714E-01
                       1.42857143E-01 -4.28571429E-01  2.14285714E-01
                       2.85714286E-01 -4.28571429E-01  2.14285714E-01
                       4.28571429E-01 -4.28571429E-01  2.14285714E-01
                      -4.28571429E-01 -4.28571429E-01  2.14285714E-01
                      -2.85714286E-01 -4.28571429E-01  2.14285714E-01
                      -1.42857143E-01 -4.28571429E-01  2.14285714E-01
                       0.00000000E+00 -2.85714286E-01  2.14285714E-01
                       1.42857143E-01 -2.85714286E-01  2.14285714E-01
                       2.85714286E-01 -2.85714286E-01  2.14285714E-01
                       4.28571429E-01 -2.85714286E-01  2.14285714E-01
                      -4.28571429E-01 -2.85714286E-01  2.14285714E-01
                      -2.85714286E-01 -2.85714286E-01  2.14285714E-01
                      -1.42857143E-01 -2.85714286E-01  2.14285714E-01
                       0.00000000E+00 -1.42857143E-01  2.14285714E-01
                       1.42857143E-01 -1.42857143E-01  2.14285714E-01
                       2.85714286E-01 -1.42857143E-01  2.14285714E-01
                       4.28571429E-01 -1.42857143E-01  2.14285714E-01
                      -4.28571429E-01 -1.42857143E-01  2.14285714E-01
                      -2.85714286E-01 -1.42857143E-01  2.14285714E-01
                      -1.42857143E-01 -1.42857143E-01  2.14285714E-01
                       0.00000000E+00  0.00000000E+00  3.57142857E-01
                       1.42857143E-01  0.00000000E+00  3.57142857E-01
                       2.85714286E-01  0.00000000E+00  3.57142857E-01
                       4.28571429E-01  0.00000000E+00  3.57142857E-01
                      -4.28571429E-01  0.00000000E+00  3.57142857E-01
                      -2.85714286E-01  0.00000000E+00  3.57142857E-01
                      -1.42857143E-01  0.00000000E+00  3.57142857E-01
                       0.00000000E+00  1.42857143E-01  3.57142857E-01
                       1.42857143E-01  1.42857143E-01  3.57142857E-01
                       2.85714286E-01  1.42857143E-01  3.57142857E-01
                       4.28571429E-01  1.42857143E-01  3.57142857E-01
                      -4.28571429E-01  1.42857143E-01  3.57142857E-01
                      -2.85714286E-01  1.42857143E-01  3.57142857E-01
                      -1.42857143E-01  1.42857143E-01  3.57142857E-01
                       0.00000000E+00  2.85714286E-01  3.57142857E-01
                       1.42857143E-01  2.85714286E-01  3.57142857E-01
                       2.85714286E-01  2.85714286E-01  3.57142857E-01
                       4.28571429E-01  2.85714286E-01  3.57142857E-01
                      -4.28571429E-01  2.85714286E-01  3.57142857E-01
                      -2.85714286E-01  2.85714286E-01  3.57142857E-01
                      -1.42857143E-01  2.85714286E-01  3.57142857E-01
                       0.00000000E+00  4.28571429E-01  3.57142857E-01
                       1.42857143E-01  4.28571429E-01  3.57142857E-01
                       2.85714286E-01  4.28571429E-01  3.57142857E-01
                       4.28571429E-01  4.28571429E-01  3.57142857E-01
                      -4.28571429E-01  4.28571429E-01  3.57142857E-01
                      -2.85714286E-01  4.28571429E-01  3.57142857E-01
                      -1.42857143E-01  4.28571429E-01  3.57142857E-01
                       0.00000000E+00 -4.28571429E-01  3.57142857E-01
                       1.42857143E-01 -4.28571429E-01  3.57142857E-01
                       2.85714286E-01 -4.28571429E-01  3.57142857E-01
                       4.28571429E-01 -4.28571429E-01  3.57142857E-01
                      -4.28571429E-01 -4.28571429E-01  3.57142857E-01
                      -2.85714286E-01 -4.28571429E-01  3.57142857E-01
                      -1.42857143E-01 -4.28571429E-01  3.57142857E-01
                       0.00000000E+00 -2.85714286E-01  3.57142857E-01
                       1.42857143E-01 -2.85714286E-01  3.57142857E-01
                       2.85714286E-01 -2.85714286E-01  3.57142857E-01
                       4.28571429E-01 -2.85714286E-01  3.57142857E-01
                      -4.28571429E-01 -2.85714286E-01  3.57142857E-01
                      -2.85714286E-01 -2.85714286E-01  3.57142857E-01
                      -1.42857143E-01 -2.85714286E-01  3.57142857E-01
                       0.00000000E+00 -1.42857143E-01  3.57142857E-01
                       1.42857143E-01 -1.42857143E-01  3.57142857E-01
                       2.85714286E-01 -1.42857143E-01  3.57142857E-01
                       4.28571429E-01 -1.42857143E-01  3.57142857E-01
                      -4.28571429E-01 -1.42857143E-01  3.57142857E-01
                      -2.85714286E-01 -1.42857143E-01  3.57142857E-01
                      -1.42857143E-01 -1.42857143E-01  3.57142857E-01
                       0.00000000E+00  0.00000000E+00  5.00000000E-01
                       1.42857143E-01  0.00000000E+00  5.00000000E-01
                       2.85714286E-01  0.00000000E+00  5.00000000E-01
                       4.28571429E-01  0.00000000E+00  5.00000000E-01
                       0.00000000E+00  1.42857143E-01  5.00000000E-01
                       1.42857143E-01  1.42857143E-01  5.00000000E-01
                       2.85714286E-01  1.42857143E-01  5.00000000E-01
                       4.28571429E-01  1.42857143E-01  5.00000000E-01
                      -4.28571429E-01  1.42857143E-01  5.00000000E-01
                      -2.85714286E-01  1.42857143E-01  5.00000000E-01
                      -1.42857143E-01  1.42857143E-01  5.00000000E-01
                       0.00000000E+00  2.85714286E-01  5.00000000E-01
                       1.42857143E-01  2.85714286E-01  5.00000000E-01
                       2.85714286E-01  2.85714286E-01  5.00000000E-01
                       4.28571429E-01  2.85714286E-01  5.00000000E-01
                      -4.28571429E-01  2.85714286E-01  5.00000000E-01
                      -2.85714286E-01  2.85714286E-01  5.00000000E-01
                      -1.42857143E-01  2.85714286E-01  5.00000000E-01
                       0.00000000E+00  4.28571429E-01  5.00000000E-01
                       1.42857143E-01  4.28571429E-01  5.00000000E-01
                       2.85714286E-01  4.28571429E-01  5.00000000E-01
                       4.28571429E-01  4.28571429E-01  5.00000000E-01
                      -4.28571429E-01  4.28571429E-01  5.00000000E-01
                      -2.85714286E-01  4.28571429E-01  5.00000000E-01
                      -1.42857143E-01  4.28571429E-01  5.00000000E-01
         kptrlatt        7    0    0      0    7    0      0    0    7
          kptrlen      3.25499979E+01
P           mkmem         172
            natom           3
            nband          12
           ndtset           1
            ngfft          27      45     192
             nkpt         172
          nspinor           2
            nstep         200
             nsym           1
           ntypat           2
              occ      1.000000  1.000000  1.000000  1.000000  1.000000  1.000000
                       1.000000  1.000000  1.000000  0.000000  0.000000  0.000000
           prtden           0
           prtvol          -1
            rprim      8.6602540378E-01 -5.0000000000E-01  0.0000000000E+00
                       0.0000000000E+00  1.0000000000E+00  0.0000000000E+00
                       0.0000000000E+00  0.0000000000E+00  1.0000000000E+00
           shiftk      0.00000000E+00  0.00000000E+00  5.00000000E-01
           so_psp           2       2
          spgroup           1
           toldfe      1.00000000E-06 Hartree
            typat      1  1  2
              wtk        0.00583    0.00583    0.00583    0.00583    0.00583    0.00583
                         0.00583    0.00583    0.00583    0.00583    0.00583    0.00583
                         0.00583    0.00583    0.00583    0.00583    0.00583    0.00583
                         0.00583    0.00583    0.00583    0.00583    0.00583    0.00583
                         0.00583    0.00583    0.00583    0.00583    0.00583    0.00583
                         0.00583    0.00583    0.00583    0.00583    0.00583    0.00583
                         0.00583    0.00583    0.00583    0.00583    0.00583    0.00583
                         0.00583    0.00583    0.00583    0.00583    0.00583    0.00583
                         0.00583    0.00583    0.00583    0.00583    0.00583    0.00583
                         0.00583    0.00583    0.00583    0.00583    0.00583    0.00583
                         0.00583    0.00583    0.00583    0.00583    0.00583    0.00583
                         0.00583    0.00583    0.00583    0.00583    0.00583    0.00583
                         0.00583    0.00583    0.00583    0.00583    0.00583    0.00583
                         0.00583    0.00583    0.00583    0.00583    0.00583    0.00583
                         0.00583    0.00583    0.00583    0.00583    0.00583    0.00583
                         0.00583    0.00583    0.00583    0.00583    0.00583    0.00583
                         0.00583    0.00583    0.00583    0.00583    0.00583    0.00583
                         0.00583    0.00583    0.00583    0.00583    0.00583    0.00583
                         0.00583    0.00583    0.00583    0.00583    0.00583    0.00583
                         0.00583    0.00583    0.00583    0.00583    0.00583    0.00583
                         0.00583    0.00583    0.00583    0.00583    0.00583    0.00583
                         0.00583    0.00583    0.00583    0.00583    0.00583    0.00583
                         0.00583    0.00583    0.00583    0.00583    0.00583    0.00583
                         0.00583    0.00583    0.00583    0.00583    0.00583    0.00583
                         0.00583    0.00583    0.00583    0.00292    0.00583    0.00583
                         0.00583    0.00583    0.00583    0.00583    0.00583    0.00583
                         0.00583    0.00583    0.00583    0.00583    0.00583    0.00583
                         0.00583    0.00583    0.00583    0.00583    0.00583    0.00583
                         0.00583    0.00583    0.00583    0.00583
           xangst      2.4606736215E+00  2.2913373101E-07  1.2495553019E+01
                       2.4606736215E+00  1.4206705206E+00  1.2041895903E+01
                       2.4606736215E+00 -5.4097786036E-06  1.3612186349E+01
            xcart      4.6499992470E+00  4.3299999941E-07  2.3613173084E+01
                       4.6499992470E+00  2.6846782090E+00  2.2755885378E+01
                       4.6499992470E+00 -1.0223000000E-05  2.5723304270E+01
             xred      1.1547004269E+00  3.3333337190E-01  6.7466208811E-01
                       1.1547004269E+00  6.6666662288E-01  6.5016815366E-01
                       1.1547004269E+00  3.3333204884E-01  7.3495155057E-01
            znucl        6.00000    1.00000

================================================================================

 chkinp: Checking input parameters for consistency, jdtset=   1.

 abinit : before driver, prtvol=-1, debugging mode => will skip driver

== END DATASET(S) ==============================================================
================================================================================

 abinit : before driver, prtvol=-1, debugging mode => will skip outvars


- Timing analysis has been suppressed with timopt=0



 abinit : before driver, prtvol=-1, debugging mode => will skip acknowledgments
-
- Proc.   0 individual time (sec): cpu=          0.2  wall=          0.3

================================================================================

 Calculation completed.
.Delivered    1 WARNINGs and   2 COMMENTs to log file.
+Overall time at end (sec) : cpu=          0.2  wall=          0.3
