
.Version 7.0.5 of ABINIT 
.(MPI version, prepared for a x86_64_none_intel12.1 computer) 

.Copyright (C) 1998-2012 ABINIT group . 
 ABINIT comes with ABSOLUTELY NO WARRANTY.
 It is free software, and you are welcome to redistribute it
 under certain conditions (GNU General Public License,
 see ~abinit/COPYING or http://www.gnu.org/copyleft/gpl.txt).

 ABINIT is a project of the Universite Catholique de Louvain,
 Corning Inc. and other collaborators, see ~abinit/doc/developers/contributors.txt .
 Please read ~abinit/doc/users/acknowledgments.html for suggested
 acknowledgments of the ABINIT effort.
 For more information, see http://www.abinit.org .

.Starting date : Fri 26 Aug 2016.
- ( at  8h24 )
  

 herald :  WARNING -
  The starting date is more than 3 years after the initial release
  of this version of ABINIT, namely Jan 2013.
  This version of ABINIT is not supported anymore.
  Action : please, switch to a more recent version of ABINIT.
- input  file    -> up-gw1_4.in
- output file    -> up-gw1_4.out
- root for input  files -> up-gw1i
- root for output files -> up-gw1o


 DATASET    1 : space group P1 (#  1); Bravais aP (primitive triclinic)
================================================================================
 Values of the parameters that define the memory need for DATASET  1.
   intxc =         0  ionmov =         0    iscf =         5 xclevel =         1
  lmnmax =         1   lnmax =         1   mband =       100  mffmem =         1
P  mgfft =       108   mkmem =         1 mpssoang=         2     mpw =      2675
  mqgrid =      5231   natom =         6    nfft =     58320    nkpt =         1
  nloalg =         4  nspden =         1 nspinor =         1  nsppol =         1
    nsym =         1  n1xccc =      2501  ntypat =         2  occopt =         1
================================================================================
P This job should need less than                      18.341 Mbytes of memory.
  Rough estimation (10% accuracy) of disk space for files :
  WF disk file :      4.084 Mbytes ; DEN or POT disk file :      0.447 Mbytes.
================================================================================


 DATASET    2 : space group P1 (#  1); Bravais aP (primitive triclinic)
================================================================================
 Values of the parameters that define the memory need for DATASET  2.
   intxc =         0  ionmov =         0    iscf =         5 xclevel =         1
  lmnmax =         1   lnmax =         1   mband =       100  mffmem =         1
P  mgfft =       108   mkmem =         1 mpssoang=         2     mpw =      2675
  mqgrid =      5231   natom =         6    nfft =     58320    nkpt =         1
  nloalg =         4  nspden =         1 nspinor =         1  nsppol =         1
    nsym =         1  n1xccc =      2501  ntypat =         2  occopt =         1
================================================================================
P This job should need less than                      18.341 Mbytes of memory.
  Rough estimation (10% accuracy) of disk space for files :
  WF disk file :      4.084 Mbytes ; DEN or POT disk file :      0.447 Mbytes.
================================================================================


 DATASET    3 : space group P1 (#  1); Bravais aP (primitive triclinic)
================================================================================
 Values of the parameters that define the memory need for DATASET  3.
   intxc =         0  ionmov =         0    iscf =         5 xclevel =         1
  lmnmax =         1   lnmax =         1   mband =       100  mffmem =         1
P  mgfft =       108   mkmem =         1 mpssoang=         2     mpw =      2675
  mqgrid =      5231   natom =         6    nfft =     58320    nkpt =         1
  nloalg =         4  nspden =         1 nspinor =         1  nsppol =         1
    nsym =         1  n1xccc =      2501  ntypat =         2  occopt =         1
================================================================================
P This job should need less than                      18.341 Mbytes of memory.
  Rough estimation (10% accuracy) of disk space for files :
  WF disk file :      4.084 Mbytes ; DEN or POT disk file :      0.447 Mbytes.
================================================================================


 DATASET    4 : space group P1 (#  1); Bravais aP (primitive triclinic)
================================================================================
 Values of the parameters that define the memory need for DATASET  4.
   intxc =         0  ionmov =         0    iscf =         5 xclevel =         1
  lmnmax =         1   lnmax =         1   mband =       100  mffmem =         1
P  mgfft =       108   mkmem =         1 mpssoang=         2     mpw =      2675
  mqgrid =      5231   natom =         6    nfft =     58320    nkpt =         1
  nloalg =         4  nspden =         1 nspinor =         1  nsppol =         1
    nsym =         1  n1xccc =      2501  ntypat =         2  occopt =         1
================================================================================
P This job should need less than                      18.341 Mbytes of memory.
  Rough estimation (10% accuracy) of disk space for files :
  WF disk file :      4.084 Mbytes ; DEN or POT disk file :      0.447 Mbytes.
================================================================================


 DATASET    5 : space group P1 (#  1); Bravais aP (primitive triclinic)
================================================================================
 Values of the parameters that define the memory need for DATASET  5.
   intxc =         0  ionmov =         0    iscf =         5 xclevel =         1
  lmnmax =         1   lnmax =         1   mband =       100  mffmem =         1
P  mgfft =       108   mkmem =         1 mpssoang=         2     mpw =      2675
  mqgrid =      5231   natom =         6    nfft =     58320    nkpt =         1
  nloalg =         4  nspden =         1 nspinor =         1  nsppol =         1
    nsym =         1  n1xccc =      2501  ntypat =         2  occopt =         1
================================================================================
P This job should need less than                      18.341 Mbytes of memory.
  Rough estimation (10% accuracy) of disk space for files :
  WF disk file :      4.084 Mbytes ; DEN or POT disk file :      0.447 Mbytes.
================================================================================


 DATASET    6 : space group P1 (#  1); Bravais aP (primitive triclinic)
================================================================================
 Values of the parameters that define the memory need for DATASET  6.
   intxc =         0  ionmov =         0    iscf =         5 xclevel =         1
  lmnmax =         1   lnmax =         1   mband =       100  mffmem =         1
P  mgfft =       108   mkmem =         1 mpssoang=         2     mpw =      2675
  mqgrid =      5231   natom =         6    nfft =     58320    nkpt =         1
  nloalg =         4  nspden =         1 nspinor =         1  nsppol =         1
    nsym =         1  n1xccc =      2501  ntypat =         2  occopt =         1
================================================================================
P This job should need less than                      18.341 Mbytes of memory.
  Rough estimation (10% accuracy) of disk space for files :
  WF disk file :      4.084 Mbytes ; DEN or POT disk file :      0.447 Mbytes.
================================================================================


 DATASET    7 : space group P1 (#  1); Bravais aP (primitive triclinic)
================================================================================
 Values of the parameters that define the memory need for DATASET  7.
   intxc =         0  ionmov =         0    iscf =         5 xclevel =         1
  lmnmax =         1   lnmax =         1   mband =       100  mffmem =         1
P  mgfft =       108   mkmem =         1 mpssoang=         2     mpw =      2675
  mqgrid =      5231   natom =         6    nfft =     58320    nkpt =         1
  nloalg =         4  nspden =         1 nspinor =         1  nsppol =         1
    nsym =         1  n1xccc =      2501  ntypat =         2  occopt =         1
================================================================================
P This job should need less than                      18.341 Mbytes of memory.
  Rough estimation (10% accuracy) of disk space for files :
  WF disk file :      4.084 Mbytes ; DEN or POT disk file :      0.447 Mbytes.
================================================================================

--------------------------------------------------------------------------------
------------- Echo of variables that govern the present computation ------------
--------------------------------------------------------------------------------
-
- outvars: echo of selected default values                                      
-   accesswff0 =  0 , fftalg0 =112 , wfoptalg0 =  0
-
- outvars: echo of global parameters not present in the input file              
-  max_nthreads =    0
-
 -outvars: echo values of preprocessed input variables --------
            acell      4.6499996960E+00  8.0540353180E+00  3.0000000000E+01 Bohr
              amu      1.00794000E+00  1.20110000E+01
             bdgw           9      10
             ecut      1.49989777E+01 Hartree
         ecutsigx1     2.99373071E+00 Hartree
         ecutsigx2     3.95676773E+00 Hartree
         ecutsigx3     4.98566840E+00 Hartree
         ecutsigx4     5.97262884E+00 Hartree
         ecutsigx5     6.99899618E+00 Hartree
         ecutsigx6     7.98463913E+00 Hartree
         ecutsigx7     8.92148308E+00 Hartree
          ecutwfn      1.49989777E+01 Hartree
           getkss           1
           getscr           1
             iscf           5
           istwfk        1
           jdtset        1    2    3    4    5    6    7
         kptrlatt        1    0    0      0    1    0      0    0    1
          kptrlen      4.64999970E+00
P           mkmem           1
            natom           6
            nband         100
           ndtset           7
            ngfft          18      30     108
             nkpt           1
           nkptgw           1
          npwsigx1        241
          npwsigx2        355
          npwsigx3        539
          npwsigx4        695
          npwsigx5        855
          npwsigx6       1031
          npwsigx7       1237
           npwwfn        2679
          nshsigx1        241
          nshsigx2        355
          nshsigx3        539
          nshsigx4        695
          nshsigx5        855
          nshsigx6       1031
          nshsigx7       1237
             nsym           1
           ntypat           2
              occ      2.000000  2.000000  2.000000  2.000000  2.000000  2.000000
                       2.000000  2.000000  2.000000  0.000000  0.000000  0.000000
                       0.000000  0.000000  0.000000  0.000000  0.000000  0.000000
                       0.000000  0.000000  0.000000  0.000000  0.000000  0.000000
                       0.000000  0.000000  0.000000  0.000000  0.000000  0.000000
                       0.000000  0.000000  0.000000  0.000000  0.000000  0.000000
                       0.000000  0.000000  0.000000  0.000000  0.000000  0.000000
                       0.000000  0.000000  0.000000  0.000000  0.000000  0.000000
                       0.000000  0.000000  0.000000  0.000000  0.000000  0.000000
                       0.000000  0.000000  0.000000  0.000000  0.000000  0.000000
                       0.000000  0.000000  0.000000  0.000000  0.000000  0.000000
                       0.000000  0.000000  0.000000  0.000000  0.000000  0.000000
                       0.000000  0.000000  0.000000  0.000000  0.000000  0.000000
                       0.000000  0.000000  0.000000  0.000000  0.000000  0.000000
                       0.000000  0.000000  0.000000  0.000000  0.000000  0.000000
                       0.000000  0.000000  0.000000  0.000000  0.000000  0.000000
                       0.000000  0.000000  0.000000  0.000000
        optdriver           4
           ppmfrq      6.13713734E-01 Hartree
            rprim      8.6602540378E-01 -5.0000000000E-01  0.0000000000E+00
                       0.0000000000E+00  1.0000000000E+00  0.0000000000E+00
                       0.0000000000E+00  0.0000000000E+00  1.0000000000E+00
          spgroup           1
            typat      1  1  2  2  2  2
           xangst     -2.3812974387E-07  6.8561204582E-04  1.3610132864E+01
                       1.2303421832E+00  2.1299904870E+00  1.3609929832E+01
                      -2.3812974387E-07  2.2013480830E-03  1.2386786576E+01
                      -2.3812974387E-07  1.4188380540E+00  1.2155007896E+01
                       1.2303233752E+00  2.1324792476E+00  1.2387302099E+01
                       1.2303382361E+00  3.5490075256E+00  1.2146211489E+01
            xcart     -4.5000000000E-07  1.2956190000E-03  2.5719423746E+01
                       2.3250097760E+00  4.0250986860E+00  2.5719040070E+01
                      -4.5000000000E-07  4.1599450000E-03  2.3407634295E+01
                      -4.5000000000E-07  2.6812153490E+00  2.2969636067E+01
                       2.3249742340E+00  4.0298017620E+00  2.3408608492E+01
                       2.3250023170E+00  6.7066522670E+00  2.2953013267E+01
             xred     -1.1174522070E-07  1.6083356246E-04  8.5731412487E-01
                       5.7735273454E-01  6.6642912455E-01  8.5730133567E-01
                      -1.1174522070E-07  5.1647218173E-04  7.8025447650E-01
                      -1.1174522070E-07  3.3290331906E-01  7.6565453557E-01
                       5.7734390865E-01  6.6701051706E-01  7.8028694973E-01
                       5.7735088230E-01  9.9937393652E-01  7.6510044223E-01
            znucl        1.00000    6.00000

================================================================================

 chkinp: Checking input parameters for consistency, jdtset=   1.

 chkinp: Checking input parameters for consistency, jdtset=   2.

 chkinp: Checking input parameters for consistency, jdtset=   3.

 chkinp: Checking input parameters for consistency, jdtset=   4.

 chkinp: Checking input parameters for consistency, jdtset=   5.

 chkinp: Checking input parameters for consistency, jdtset=   6.

 chkinp: Checking input parameters for consistency, jdtset=   7.

================================================================================
== DATASET  1 ==================================================================
-   nproc =   12

 mkfilename : getscr/=0, take file _SCR from output of DATASET   1.

 mkfilename : getkss/=0, take file _KSS from output of DATASET   1.

 Exchange-correlation functional for the present dataset will be:
  LDA: new Teter (4/93) with spin-polarized option - ixc=1
 Citation for XC functional:
  S. Goedecker, M. Teter, J. Huetter, PRB 54, 1703 (1996)
 
 SIGMA: Calculation of the GW corrections

 Based on a program developped by R.W. Godby, V. Olevano, G. Onida, and L. Reining.
 Incorporated in ABINIT by V. Olevano, G.-M. Rignanese, and M. Torrent.
.Using double precision arithmetic ; gwpc =  8

 Real(R)+Recip(G) space primitive vectors, cartesian coordinates (Bohr,Bohr^-1):
 R(1)=  4.0270179 -2.3249998  0.0000000  G(1)=  0.2483227  0.0000000  0.0000000
 R(2)=  0.0000000  8.0540353  0.0000000  G(2)=  0.0716846  0.1241614  0.0000000
 R(3)=  0.0000000  0.0000000 30.0000000  G(3)=  0.0000000  0.0000000  0.0333333
 Unit cell volume ucvol=  9.7301232E+02 bohr^3
 Angles (23,13,12)=  9.00000000E+01  9.00000000E+01  1.20000000E+02 degrees

--- Pseudopotential description ------------------------------------------------
- pspini: atom type   1  psp file is /home/reinaldo/tiniba/pseudopotentials/pspnc/1h.pspnc
- pspatm: opening atomic psp file    /home/reinaldo/tiniba/pseudopotentials/pspnc/1h.pspnc
-  Troullier-Martins psp for element  H         Thu Oct 27 17:28:54 EDT 1994
-  1.00000   1.00000    940714                znucl, zion, pspdat
    1    1    0    0      2001   0.00000      pspcod,pspxc,lmax,lloc,mmax,r2well
    0   7.740  11.990    0   1.5855604        l,e99.0,e99.9,nproj,rcpsp
   0.00000000   0.00000000   0.00000000   0.00000000     rms, ekb1, ekb2, epsatm
    0.00000000000000    0.00000000000000    0.00000000000000   rchrg,fchrg,qchrg
 Note: local psp for atom with Z=  1.0
 pspatm: epsatm=    0.04198703
         --- l  ekb(1:nproj) -->
 pspatm: atomic psp has been read  and splines computed

- pspini: atom type   2  psp file is /home/reinaldo/tiniba/pseudopotentials/pspnc/6c.pspnc
- pspatm: opening atomic psp file    /home/reinaldo/tiniba/pseudopotentials/pspnc/6c.pspnc
-  Troullier-Martins psp for element  C         Thu Oct 27 17:29:33 EDT 1994
-  6.00000   4.00000    940714                znucl, zion, pspdat
    1    1    1    1      2001   0.00000      pspcod,pspxc,lmax,lloc,mmax,r2well
    0  10.372  24.987    1   1.4850707        l,e99.0,e99.9,nproj,rcpsp
   0.00000000   0.00000000   0.00000000   0.00000000     rms, ekb1, ekb2, epsatm
    1  15.431  21.987    0   1.4850707        l,e99.0,e99.9,nproj,rcpsp
   0.00000000   0.00000000   0.00000000   0.00000000     rms, ekb1, ekb2, epsatm
    0.83985002509544    0.99012430797080    0.51184907750884   rchrg,fchrg,qchrg
 pspatm: epsatm=    0.92590353
         --- l  ekb(1:nproj) -->
             0    4.921466
 pspatm: atomic psp has been read  and splines computed

   6.81765872E+01                                ecore*ucvol(ha*bohr**3)
--------------------------------------------------------------------------------

 ==== K-mesh for the wavefunctions ====
 Number of points in the irreducible wedge :     1
 Reduced coordinates and weights :

     1)     0.00000000E+00  0.00000000E+00  0.00000000E+00       1.00000

 Together with  1 symmetry operations and time-reversal symmetry 
 yields     1 points in the full Brillouin Zone.


 ==== Q-mesh for screening function ====
 Number of points in the irreducible wedge :     1
 Reduced coordinates and weights :

     1)     0.00000000E+00  0.00000000E+00  0.00000000E+00       1.00000

 Together with  1 symmetry operations and time-reversal symmetry 
 yields     1 points in the full Brillouin Zone.


 setmesh: FFT mesh size selected  =  12x 18x 75
          total number of points  =    16200


 k       eigenvalues [eV]
  1        -27.01 -19.63 -16.00 -14.77 -12.71  -6.52  -4.09  -3.37  -3.02  -0.92
             1.89   2.57   3.57   4.15   4.99   6.21   7.01   7.70   8.31   8.73
             9.69  10.88  11.20  11.88  12.50  13.06  13.31  13.68  13.96  14.08
            14.81  14.85  15.31  15.91  16.40  17.64  17.70  18.11  19.01  19.46
            19.77  20.37  21.28  22.13  22.29  22.69  24.05  24.44  25.19  25.32
            26.02  26.58  27.04  27.27  27.53  27.79  27.97  28.11  28.25  28.89
            29.44  29.61  29.72  30.44  30.87  31.09  31.21  31.32  31.72  32.62
            32.81  33.32  33.48  33.80  34.11  34.77  35.00  35.28  35.61  35.73
            36.00  36.21  36.69  36.87  37.19  37.40  37.53  37.74  37.97  38.08
            38.30  38.41  38.57  38.74  39.11  39.62  40.24  40.80  40.94  41.11


 test on the normalization of the wavefunctions
 min sum_G |a(n,k,G)| =  0.998989
 max sum_G |a(n,k,G)| =  0.999965
 test on the orthogonalization of the wavefunctions (NB: this is not invariant for degenerate states)
- min sum_G a(n,k,G)a(n",k,G) =  0.000000
- max sum_G a(n,k,G)a(n",k,G) =  0.000416

 Number of electrons calculated from density =   17.9911; Expected =   18.0000
 average of density, n =  0.018490
 r_s =    2.3460
 omega_plasma =   13.1167 [eV]


 === KS Band Gaps ===
  >>>> For spin  1
   Minimum optical gap =   2.1090 [eV], located at k-point      :   0.0000  0.0000  0.0000
   Fundamental gap     =   2.1090 [eV], Top of valence bands at :   0.0000  0.0000  0.0000
                                        Bottom of conduction at :   0.0000  0.0000  0.0000
 SIGMA fundamental parameters:
 PLASMON POLE MODEL  1
 number of plane-waves for SigmaX                  241
 number of plane-waves for SigmaC and W            241
 number of plane-waves for wavefunctions          2679
 number of bands                                   100
 number of independent spin polarizations            1
 number of spinorial components                      1
 number of k-points in IBZ                           1
 number of q-points in IBZ                           1
 number of symmetry operations                       1
 number of k-points in BZ                            1
 number of q-points in BZ                            1
 number of frequencies for dSigma/dE                 9
 frequency step for dSigma/dE [eV]                0.25
 number of omega for Sigma on real axis              0
 max omega for Sigma on real axis  [eV]           0.00
 zcut for avoiding poles [eV]                     0.10

 EPSILON^-1 parameters (SCR file):
 dimension of the eps^-1 matrix on file           1961
 dimension of the eps^-1 matrix used               241
 number of plane-waves for wavefunctions           897
 number of bands                                    25
 number of q-points in IBZ                           1
 number of frequencies                               2
 number of real frequencies                          1
 number of imag frequencies                          1

 matrix elements of self-energy operator (all in [eV])

 Perturbative Calculation

 k =    0.000   0.000   0.000
 Band     E0 <VxcLDA>   SigX SigC(E0)      Z dSigC/dE  Sig(E)    E-E0       E
    9  -3.025 -15.629 -33.377   5.379   0.626  -0.598 -23.371  -7.741 -10.766
   10  -0.916 -12.433  -6.951  -4.866   0.646  -0.549 -12.035   0.398  -0.518

 E^0_gap          2.109
 E^GW_gap        10.248
 DeltaE^GW_gap    8.139


 New Fermi energy :       -7.146131E-02 Ha ,   -1.944561E+00 eV

 === QP Band Gaps ===
  >>>> For spin  1
   Minimum optical gap =  10.2480 [eV], located at k-point      :   0.0000  0.0000  0.0000
   Fundamental gap     =  10.2480 [eV], Top of valence bands at :   0.0000  0.0000  0.0000
                                        Bottom of conduction at :   0.0000  0.0000  0.0000

================================================================================
== DATASET  2 ==================================================================
-   nproc =   12

 mkfilename : getscr/=0, take file _SCR from output of DATASET   1.

 mkfilename : getkss/=0, take file _KSS from output of DATASET   1.

 Exchange-correlation functional for the present dataset will be:
  LDA: new Teter (4/93) with spin-polarized option - ixc=1
 Citation for XC functional:
  S. Goedecker, M. Teter, J. Huetter, PRB 54, 1703 (1996)
 
 SIGMA: Calculation of the GW corrections

 Based on a program developped by R.W. Godby, V. Olevano, G. Onida, and L. Reining.
 Incorporated in ABINIT by V. Olevano, G.-M. Rignanese, and M. Torrent.
.Using double precision arithmetic ; gwpc =  8

 Real(R)+Recip(G) space primitive vectors, cartesian coordinates (Bohr,Bohr^-1):
 R(1)=  4.0270179 -2.3249998  0.0000000  G(1)=  0.2483227  0.0000000  0.0000000
 R(2)=  0.0000000  8.0540353  0.0000000  G(2)=  0.0716846  0.1241614  0.0000000
 R(3)=  0.0000000  0.0000000 30.0000000  G(3)=  0.0000000  0.0000000  0.0333333
 Unit cell volume ucvol=  9.7301232E+02 bohr^3
 Angles (23,13,12)=  9.00000000E+01  9.00000000E+01  1.20000000E+02 degrees
--------------------------------------------------------------------------------

 ==== K-mesh for the wavefunctions ====
 Number of points in the irreducible wedge :     1
 Reduced coordinates and weights :

     1)     0.00000000E+00  0.00000000E+00  0.00000000E+00       1.00000

 Together with  1 symmetry operations and time-reversal symmetry 
 yields     1 points in the full Brillouin Zone.


 ==== Q-mesh for screening function ====
 Number of points in the irreducible wedge :     1
 Reduced coordinates and weights :

     1)     0.00000000E+00  0.00000000E+00  0.00000000E+00       1.00000

 Together with  1 symmetry operations and time-reversal symmetry 
 yields     1 points in the full Brillouin Zone.


 setmesh: FFT mesh size selected  =  12x 20x 80
          total number of points  =    19200


 k       eigenvalues [eV]
  1        -27.01 -19.63 -16.00 -14.77 -12.71  -6.52  -4.09  -3.37  -3.02  -0.92
             1.89   2.57   3.57   4.15   4.99   6.21   7.01   7.70   8.31   8.73
             9.69  10.88  11.20  11.88  12.50  13.06  13.31  13.68  13.96  14.08
            14.81  14.85  15.31  15.91  16.40  17.64  17.70  18.11  19.01  19.46
            19.77  20.37  21.28  22.13  22.29  22.69  24.05  24.44  25.19  25.32
            26.02  26.58  27.04  27.27  27.53  27.79  27.97  28.11  28.25  28.89
            29.44  29.61  29.72  30.44  30.87  31.09  31.21  31.32  31.72  32.62
            32.81  33.32  33.48  33.80  34.11  34.77  35.00  35.28  35.61  35.73
            36.00  36.21  36.69  36.87  37.19  37.40  37.53  37.74  37.97  38.08
            38.30  38.41  38.57  38.74  39.11  39.62  40.24  40.80  40.94  41.11


 test on the normalization of the wavefunctions
 min sum_G |a(n,k,G)| =  0.998989
 max sum_G |a(n,k,G)| =  0.999965
 test on the orthogonalization of the wavefunctions (NB: this is not invariant for degenerate states)
- min sum_G a(n,k,G)a(n",k,G) =  0.000000
- max sum_G a(n,k,G)a(n",k,G) =  0.000416

 Number of electrons calculated from density =   17.9911; Expected =   18.0000
 average of density, n =  0.018490
 r_s =    2.3460
 omega_plasma =   13.1167 [eV]


 === KS Band Gaps ===
  >>>> For spin  1
   Minimum optical gap =   2.1090 [eV], located at k-point      :   0.0000  0.0000  0.0000
   Fundamental gap     =   2.1090 [eV], Top of valence bands at :   0.0000  0.0000  0.0000
                                        Bottom of conduction at :   0.0000  0.0000  0.0000
 SIGMA fundamental parameters:
 PLASMON POLE MODEL  1
 number of plane-waves for SigmaX                  355
 number of plane-waves for SigmaC and W            355
 number of plane-waves for wavefunctions          2679
 number of bands                                   100
 number of independent spin polarizations            1
 number of spinorial components                      1
 number of k-points in IBZ                           1
 number of q-points in IBZ                           1
 number of symmetry operations                       1
 number of k-points in BZ                            1
 number of q-points in BZ                            1
 number of frequencies for dSigma/dE                 9
 frequency step for dSigma/dE [eV]                0.25
 number of omega for Sigma on real axis              0
 max omega for Sigma on real axis  [eV]           0.00
 zcut for avoiding poles [eV]                     0.10

 EPSILON^-1 parameters (SCR file):
 dimension of the eps^-1 matrix on file           1961
 dimension of the eps^-1 matrix used               355
 number of plane-waves for wavefunctions           897
 number of bands                                    25
 number of q-points in IBZ                           1
 number of frequencies                               2
 number of real frequencies                          1
 number of imag frequencies                          1

 matrix elements of self-energy operator (all in [eV])

 Perturbative Calculation

 k =    0.000   0.000   0.000
 Band     E0 <VxcLDA>   SigX SigC(E0)      Z dSigC/dE  Sig(E)    E-E0       E
    9  -3.025 -15.629 -33.829   5.376   0.623  -0.606 -23.613  -7.984 -11.008
   10  -0.916 -12.433  -7.237  -4.849   0.644  -0.553 -12.210   0.223  -0.692

 E^0_gap          2.109
 E^GW_gap        10.316
 DeltaE^GW_gap    8.207


 New Fermi energy :       -7.466610E-02 Ha ,   -2.031768E+00 eV

 === QP Band Gaps ===
  >>>> For spin  1
   Minimum optical gap =  10.3159 [eV], located at k-point      :   0.0000  0.0000  0.0000
   Fundamental gap     =  10.3159 [eV], Top of valence bands at :   0.0000  0.0000  0.0000
                                        Bottom of conduction at :   0.0000  0.0000  0.0000

================================================================================
== DATASET  3 ==================================================================
-   nproc =   12

 mkfilename : getscr/=0, take file _SCR from output of DATASET   1.

 mkfilename : getkss/=0, take file _KSS from output of DATASET   1.

 Exchange-correlation functional for the present dataset will be:
  LDA: new Teter (4/93) with spin-polarized option - ixc=1
 Citation for XC functional:
  S. Goedecker, M. Teter, J. Huetter, PRB 54, 1703 (1996)
 
 SIGMA: Calculation of the GW corrections

 Based on a program developped by R.W. Godby, V. Olevano, G. Onida, and L. Reining.
 Incorporated in ABINIT by V. Olevano, G.-M. Rignanese, and M. Torrent.
.Using double precision arithmetic ; gwpc =  8

 Real(R)+Recip(G) space primitive vectors, cartesian coordinates (Bohr,Bohr^-1):
 R(1)=  4.0270179 -2.3249998  0.0000000  G(1)=  0.2483227  0.0000000  0.0000000
 R(2)=  0.0000000  8.0540353  0.0000000  G(2)=  0.0716846  0.1241614  0.0000000
 R(3)=  0.0000000  0.0000000 30.0000000  G(3)=  0.0000000  0.0000000  0.0333333
 Unit cell volume ucvol=  9.7301232E+02 bohr^3
 Angles (23,13,12)=  9.00000000E+01  9.00000000E+01  1.20000000E+02 degrees
--------------------------------------------------------------------------------

 ==== K-mesh for the wavefunctions ====
 Number of points in the irreducible wedge :     1
 Reduced coordinates and weights :

     1)     0.00000000E+00  0.00000000E+00  0.00000000E+00       1.00000

 Together with  1 symmetry operations and time-reversal symmetry 
 yields     1 points in the full Brillouin Zone.


 ==== Q-mesh for screening function ====
 Number of points in the irreducible wedge :     1
 Reduced coordinates and weights :

     1)     0.00000000E+00  0.00000000E+00  0.00000000E+00       1.00000

 Together with  1 symmetry operations and time-reversal symmetry 
 yields     1 points in the full Brillouin Zone.


 setmesh: FFT mesh size selected  =  12x 20x 90
          total number of points  =    21600


 k       eigenvalues [eV]
  1        -27.01 -19.63 -16.00 -14.77 -12.71  -6.52  -4.09  -3.37  -3.02  -0.92
             1.89   2.57   3.57   4.15   4.99   6.21   7.01   7.70   8.31   8.73
             9.69  10.88  11.20  11.88  12.50  13.06  13.31  13.68  13.96  14.08
            14.81  14.85  15.31  15.91  16.40  17.64  17.70  18.11  19.01  19.46
            19.77  20.37  21.28  22.13  22.29  22.69  24.05  24.44  25.19  25.32
            26.02  26.58  27.04  27.27  27.53  27.79  27.97  28.11  28.25  28.89
            29.44  29.61  29.72  30.44  30.87  31.09  31.21  31.32  31.72  32.62
            32.81  33.32  33.48  33.80  34.11  34.77  35.00  35.28  35.61  35.73
            36.00  36.21  36.69  36.87  37.19  37.40  37.53  37.74  37.97  38.08
            38.30  38.41  38.57  38.74  39.11  39.62  40.24  40.80  40.94  41.11


 test on the normalization of the wavefunctions
 min sum_G |a(n,k,G)| =  0.998989
 max sum_G |a(n,k,G)| =  0.999965
 test on the orthogonalization of the wavefunctions (NB: this is not invariant for degenerate states)
- min sum_G a(n,k,G)a(n",k,G) =  0.000000
- max sum_G a(n,k,G)a(n",k,G) =  0.000416

 Number of electrons calculated from density =   17.9911; Expected =   18.0000
 average of density, n =  0.018490
 r_s =    2.3460
 omega_plasma =   13.1167 [eV]


 === KS Band Gaps ===
  >>>> For spin  1
   Minimum optical gap =   2.1090 [eV], located at k-point      :   0.0000  0.0000  0.0000
   Fundamental gap     =   2.1090 [eV], Top of valence bands at :   0.0000  0.0000  0.0000
                                        Bottom of conduction at :   0.0000  0.0000  0.0000
 SIGMA fundamental parameters:
 PLASMON POLE MODEL  1
 number of plane-waves for SigmaX                  539
 number of plane-waves for SigmaC and W            539
 number of plane-waves for wavefunctions          2679
 number of bands                                   100
 number of independent spin polarizations            1
 number of spinorial components                      1
 number of k-points in IBZ                           1
 number of q-points in IBZ                           1
 number of symmetry operations                       1
 number of k-points in BZ                            1
 number of q-points in BZ                            1
 number of frequencies for dSigma/dE                 9
 frequency step for dSigma/dE [eV]                0.25
 number of omega for Sigma on real axis              0
 max omega for Sigma on real axis  [eV]           0.00
 zcut for avoiding poles [eV]                     0.10

 EPSILON^-1 parameters (SCR file):
 dimension of the eps^-1 matrix on file           1961
 dimension of the eps^-1 matrix used               539
 number of plane-waves for wavefunctions           897
 number of bands                                    25
 number of q-points in IBZ                           1
 number of frequencies                               2
 number of real frequencies                          1
 number of imag frequencies                          1

 matrix elements of self-energy operator (all in [eV])

 Perturbative Calculation

 k =    0.000   0.000   0.000
 Band     E0 <VxcLDA>   SigX SigC(E0)      Z dSigC/dE  Sig(E)    E-E0       E
    9  -3.025 -15.629 -34.190   5.353   0.619  -0.614 -23.810  -8.181 -11.205
   10  -0.916 -12.433  -7.440  -4.830   0.642  -0.557 -12.329   0.105  -0.811

 E^0_gap          2.109
 E^GW_gap        10.394
 DeltaE^GW_gap    8.285


 New Fermi energy :       -7.684944E-02 Ha ,   -2.091180E+00 eV

 === QP Band Gaps ===
  >>>> For spin  1
   Minimum optical gap =  10.3942 [eV], located at k-point      :   0.0000  0.0000  0.0000
   Fundamental gap     =  10.3942 [eV], Top of valence bands at :   0.0000  0.0000  0.0000
                                        Bottom of conduction at :   0.0000  0.0000  0.0000

================================================================================
== DATASET  4 ==================================================================
-   nproc =   12

 mkfilename : getscr/=0, take file _SCR from output of DATASET   1.

 mkfilename : getkss/=0, take file _KSS from output of DATASET   1.

 Exchange-correlation functional for the present dataset will be:
  LDA: new Teter (4/93) with spin-polarized option - ixc=1
 Citation for XC functional:
  S. Goedecker, M. Teter, J. Huetter, PRB 54, 1703 (1996)
 
 SIGMA: Calculation of the GW corrections

 Based on a program developped by R.W. Godby, V. Olevano, G. Onida, and L. Reining.
 Incorporated in ABINIT by V. Olevano, G.-M. Rignanese, and M. Torrent.
.Using double precision arithmetic ; gwpc =  8

 Real(R)+Recip(G) space primitive vectors, cartesian coordinates (Bohr,Bohr^-1):
 R(1)=  4.0270179 -2.3249998  0.0000000  G(1)=  0.2483227  0.0000000  0.0000000
 R(2)=  0.0000000  8.0540353  0.0000000  G(2)=  0.0716846  0.1241614  0.0000000
 R(3)=  0.0000000  0.0000000 30.0000000  G(3)=  0.0000000  0.0000000  0.0333333
 Unit cell volume ucvol=  9.7301232E+02 bohr^3
 Angles (23,13,12)=  9.00000000E+01  9.00000000E+01  1.20000000E+02 degrees
--------------------------------------------------------------------------------

 ==== K-mesh for the wavefunctions ====
 Number of points in the irreducible wedge :     1
 Reduced coordinates and weights :

     1)     0.00000000E+00  0.00000000E+00  0.00000000E+00       1.00000

 Together with  1 symmetry operations and time-reversal symmetry 
 yields     1 points in the full Brillouin Zone.


 ==== Q-mesh for screening function ====
 Number of points in the irreducible wedge :     1
 Reduced coordinates and weights :

     1)     0.00000000E+00  0.00000000E+00  0.00000000E+00       1.00000

 Together with  1 symmetry operations and time-reversal symmetry 
 yields     1 points in the full Brillouin Zone.


 setmesh: FFT mesh size selected  =  12x 20x 90
          total number of points  =    21600


 k       eigenvalues [eV]
  1        -27.01 -19.63 -16.00 -14.77 -12.71  -6.52  -4.09  -3.37  -3.02  -0.92
             1.89   2.57   3.57   4.15   4.99   6.21   7.01   7.70   8.31   8.73
             9.69  10.88  11.20  11.88  12.50  13.06  13.31  13.68  13.96  14.08
            14.81  14.85  15.31  15.91  16.40  17.64  17.70  18.11  19.01  19.46
            19.77  20.37  21.28  22.13  22.29  22.69  24.05  24.44  25.19  25.32
            26.02  26.58  27.04  27.27  27.53  27.79  27.97  28.11  28.25  28.89
            29.44  29.61  29.72  30.44  30.87  31.09  31.21  31.32  31.72  32.62
            32.81  33.32  33.48  33.80  34.11  34.77  35.00  35.28  35.61  35.73
            36.00  36.21  36.69  36.87  37.19  37.40  37.53  37.74  37.97  38.08
            38.30  38.41  38.57  38.74  39.11  39.62  40.24  40.80  40.94  41.11


 test on the normalization of the wavefunctions
 min sum_G |a(n,k,G)| =  0.998989
 max sum_G |a(n,k,G)| =  0.999965
 test on the orthogonalization of the wavefunctions (NB: this is not invariant for degenerate states)
- min sum_G a(n,k,G)a(n",k,G) =  0.000000
- max sum_G a(n,k,G)a(n",k,G) =  0.000416

 Number of electrons calculated from density =   17.9911; Expected =   18.0000
 average of density, n =  0.018490
 r_s =    2.3460
 omega_plasma =   13.1167 [eV]


 === KS Band Gaps ===
  >>>> For spin  1
   Minimum optical gap =   2.1090 [eV], located at k-point      :   0.0000  0.0000  0.0000
   Fundamental gap     =   2.1090 [eV], Top of valence bands at :   0.0000  0.0000  0.0000
                                        Bottom of conduction at :   0.0000  0.0000  0.0000
 SIGMA fundamental parameters:
 PLASMON POLE MODEL  1
 number of plane-waves for SigmaX                  695
 number of plane-waves for SigmaC and W            695
 number of plane-waves for wavefunctions          2679
 number of bands                                   100
 number of independent spin polarizations            1
 number of spinorial components                      1
 number of k-points in IBZ                           1
 number of q-points in IBZ                           1
 number of symmetry operations                       1
 number of k-points in BZ                            1
 number of q-points in BZ                            1
 number of frequencies for dSigma/dE                 9
 frequency step for dSigma/dE [eV]                0.25
 number of omega for Sigma on real axis              0
 max omega for Sigma on real axis  [eV]           0.00
 zcut for avoiding poles [eV]                     0.10

 EPSILON^-1 parameters (SCR file):
 dimension of the eps^-1 matrix on file           1961
 dimension of the eps^-1 matrix used               695
 number of plane-waves for wavefunctions           897
 number of bands                                    25
 number of q-points in IBZ                           1
 number of frequencies                               2
 number of real frequencies                          1
 number of imag frequencies                          1

 matrix elements of self-energy operator (all in [eV])

 Perturbative Calculation

 k =    0.000   0.000   0.000
 Band     E0 <VxcLDA>   SigX SigC(E0)      Z dSigC/dE  Sig(E)    E-E0       E
    9  -3.025 -15.629 -34.313   5.341   0.618  -0.617 -23.880  -8.250 -11.275
   10  -0.916 -12.433  -7.524  -4.823   0.642  -0.559 -12.378   0.055  -0.861

 E^0_gap          2.109
 E^GW_gap        10.414
 DeltaE^GW_gap    8.305


 New Fermi energy :       -7.776094E-02 Ha ,   -2.115983E+00 eV

 === QP Band Gaps ===
  >>>> For spin  1
   Minimum optical gap =  10.4141 [eV], located at k-point      :   0.0000  0.0000  0.0000
   Fundamental gap     =  10.4141 [eV], Top of valence bands at :   0.0000  0.0000  0.0000
                                        Bottom of conduction at :   0.0000  0.0000  0.0000

================================================================================
== DATASET  5 ==================================================================
-   nproc =   12

 mkfilename : getscr/=0, take file _SCR from output of DATASET   1.

 mkfilename : getkss/=0, take file _KSS from output of DATASET   1.

 Exchange-correlation functional for the present dataset will be:
  LDA: new Teter (4/93) with spin-polarized option - ixc=1
 Citation for XC functional:
  S. Goedecker, M. Teter, J. Huetter, PRB 54, 1703 (1996)
 
 SIGMA: Calculation of the GW corrections

 Based on a program developped by R.W. Godby, V. Olevano, G. Onida, and L. Reining.
 Incorporated in ABINIT by V. Olevano, G.-M. Rignanese, and M. Torrent.
.Using double precision arithmetic ; gwpc =  8

 Real(R)+Recip(G) space primitive vectors, cartesian coordinates (Bohr,Bohr^-1):
 R(1)=  4.0270179 -2.3249998  0.0000000  G(1)=  0.2483227  0.0000000  0.0000000
 R(2)=  0.0000000  8.0540353  0.0000000  G(2)=  0.0716846  0.1241614  0.0000000
 R(3)=  0.0000000  0.0000000 30.0000000  G(3)=  0.0000000  0.0000000  0.0333333
 Unit cell volume ucvol=  9.7301232E+02 bohr^3
 Angles (23,13,12)=  9.00000000E+01  9.00000000E+01  1.20000000E+02 degrees
--------------------------------------------------------------------------------

 ==== K-mesh for the wavefunctions ====
 Number of points in the irreducible wedge :     1
 Reduced coordinates and weights :

     1)     0.00000000E+00  0.00000000E+00  0.00000000E+00       1.00000

 Together with  1 symmetry operations and time-reversal symmetry 
 yields     1 points in the full Brillouin Zone.


 ==== Q-mesh for screening function ====
 Number of points in the irreducible wedge :     1
 Reduced coordinates and weights :

     1)     0.00000000E+00  0.00000000E+00  0.00000000E+00       1.00000

 Together with  1 symmetry operations and time-reversal symmetry 
 yields     1 points in the full Brillouin Zone.


 setmesh: FFT mesh size selected  =  12x 24x 90
          total number of points  =    25920


 k       eigenvalues [eV]
  1        -27.01 -19.63 -16.00 -14.77 -12.71  -6.52  -4.09  -3.37  -3.02  -0.92
             1.89   2.57   3.57   4.15   4.99   6.21   7.01   7.70   8.31   8.73
             9.69  10.88  11.20  11.88  12.50  13.06  13.31  13.68  13.96  14.08
            14.81  14.85  15.31  15.91  16.40  17.64  17.70  18.11  19.01  19.46
            19.77  20.37  21.28  22.13  22.29  22.69  24.05  24.44  25.19  25.32
            26.02  26.58  27.04  27.27  27.53  27.79  27.97  28.11  28.25  28.89
            29.44  29.61  29.72  30.44  30.87  31.09  31.21  31.32  31.72  32.62
            32.81  33.32  33.48  33.80  34.11  34.77  35.00  35.28  35.61  35.73
            36.00  36.21  36.69  36.87  37.19  37.40  37.53  37.74  37.97  38.08
            38.30  38.41  38.57  38.74  39.11  39.62  40.24  40.80  40.94  41.11


 test on the normalization of the wavefunctions
 min sum_G |a(n,k,G)| =  0.998989
 max sum_G |a(n,k,G)| =  0.999965
 test on the orthogonalization of the wavefunctions (NB: this is not invariant for degenerate states)
- min sum_G a(n,k,G)a(n",k,G) =  0.000000
- max sum_G a(n,k,G)a(n",k,G) =  0.000416

 Number of electrons calculated from density =   17.9911; Expected =   18.0000
 average of density, n =  0.018490
 r_s =    2.3460
 omega_plasma =   13.1167 [eV]


 === KS Band Gaps ===
  >>>> For spin  1
   Minimum optical gap =   2.1090 [eV], located at k-point      :   0.0000  0.0000  0.0000
   Fundamental gap     =   2.1090 [eV], Top of valence bands at :   0.0000  0.0000  0.0000
                                        Bottom of conduction at :   0.0000  0.0000  0.0000
 SIGMA fundamental parameters:
 PLASMON POLE MODEL  1
 number of plane-waves for SigmaX                  855
 number of plane-waves for SigmaC and W            855
 number of plane-waves for wavefunctions          2679
 number of bands                                   100
 number of independent spin polarizations            1
 number of spinorial components                      1
 number of k-points in IBZ                           1
 number of q-points in IBZ                           1
 number of symmetry operations                       1
 number of k-points in BZ                            1
 number of q-points in BZ                            1
 number of frequencies for dSigma/dE                 9
 frequency step for dSigma/dE [eV]                0.25
 number of omega for Sigma on real axis              0
 max omega for Sigma on real axis  [eV]           0.00
 zcut for avoiding poles [eV]                     0.10

 EPSILON^-1 parameters (SCR file):
 dimension of the eps^-1 matrix on file           1961
 dimension of the eps^-1 matrix used               855
 number of plane-waves for wavefunctions           897
 number of bands                                    25
 number of q-points in IBZ                           1
 number of frequencies                               2
 number of real frequencies                          1
 number of imag frequencies                          1

 matrix elements of self-energy operator (all in [eV])

 Perturbative Calculation

 k =    0.000   0.000   0.000
 Band     E0 <VxcLDA>   SigX SigC(E0)      Z dSigC/dE  Sig(E)    E-E0       E
    9  -3.025 -15.629 -34.369   5.334   0.618  -0.619 -23.911  -8.281 -11.306
   10  -0.916 -12.433  -7.571  -4.821   0.641  -0.560 -12.407   0.026  -0.889

 E^0_gap          2.109
 E^GW_gap        10.417
 DeltaE^GW_gap    8.308


 New Fermi energy :       -7.828380E-02 Ha ,   -2.130211E+00 eV

 === QP Band Gaps ===
  >>>> For spin  1
   Minimum optical gap =  10.4168 [eV], located at k-point      :   0.0000  0.0000  0.0000
   Fundamental gap     =  10.4168 [eV], Top of valence bands at :   0.0000  0.0000  0.0000
                                        Bottom of conduction at :   0.0000  0.0000  0.0000

================================================================================
== DATASET  6 ==================================================================
-   nproc =   12

 mkfilename : getscr/=0, take file _SCR from output of DATASET   1.

 mkfilename : getkss/=0, take file _KSS from output of DATASET   1.

 Exchange-correlation functional for the present dataset will be:
  LDA: new Teter (4/93) with spin-polarized option - ixc=1
 Citation for XC functional:
  S. Goedecker, M. Teter, J. Huetter, PRB 54, 1703 (1996)
 
 SIGMA: Calculation of the GW corrections

 Based on a program developped by R.W. Godby, V. Olevano, G. Onida, and L. Reining.
 Incorporated in ABINIT by V. Olevano, G.-M. Rignanese, and M. Torrent.
.Using double precision arithmetic ; gwpc =  8

 Real(R)+Recip(G) space primitive vectors, cartesian coordinates (Bohr,Bohr^-1):
 R(1)=  4.0270179 -2.3249998  0.0000000  G(1)=  0.2483227  0.0000000  0.0000000
 R(2)=  0.0000000  8.0540353  0.0000000  G(2)=  0.0716846  0.1241614  0.0000000
 R(3)=  0.0000000  0.0000000 30.0000000  G(3)=  0.0000000  0.0000000  0.0333333
 Unit cell volume ucvol=  9.7301232E+02 bohr^3
 Angles (23,13,12)=  9.00000000E+01  9.00000000E+01  1.20000000E+02 degrees
--------------------------------------------------------------------------------

 ==== K-mesh for the wavefunctions ====
 Number of points in the irreducible wedge :     1
 Reduced coordinates and weights :

     1)     0.00000000E+00  0.00000000E+00  0.00000000E+00       1.00000

 Together with  1 symmetry operations and time-reversal symmetry 
 yields     1 points in the full Brillouin Zone.


 ==== Q-mesh for screening function ====
 Number of points in the irreducible wedge :     1
 Reduced coordinates and weights :

     1)     0.00000000E+00  0.00000000E+00  0.00000000E+00       1.00000

 Together with  1 symmetry operations and time-reversal symmetry 
 yields     1 points in the full Brillouin Zone.


 setmesh: FFT mesh size selected  =  15x 24x 96
          total number of points  =    34560


 k       eigenvalues [eV]
  1        -27.01 -19.63 -16.00 -14.77 -12.71  -6.52  -4.09  -3.37  -3.02  -0.92
             1.89   2.57   3.57   4.15   4.99   6.21   7.01   7.70   8.31   8.73
             9.69  10.88  11.20  11.88  12.50  13.06  13.31  13.68  13.96  14.08
            14.81  14.85  15.31  15.91  16.40  17.64  17.70  18.11  19.01  19.46
            19.77  20.37  21.28  22.13  22.29  22.69  24.05  24.44  25.19  25.32
            26.02  26.58  27.04  27.27  27.53  27.79  27.97  28.11  28.25  28.89
            29.44  29.61  29.72  30.44  30.87  31.09  31.21  31.32  31.72  32.62
            32.81  33.32  33.48  33.80  34.11  34.77  35.00  35.28  35.61  35.73
            36.00  36.21  36.69  36.87  37.19  37.40  37.53  37.74  37.97  38.08
            38.30  38.41  38.57  38.74  39.11  39.62  40.24  40.80  40.94  41.11


 test on the normalization of the wavefunctions
 min sum_G |a(n,k,G)| =  0.998989
 max sum_G |a(n,k,G)| =  0.999965
 test on the orthogonalization of the wavefunctions (NB: this is not invariant for degenerate states)
- min sum_G a(n,k,G)a(n",k,G) =  0.000000
- max sum_G a(n,k,G)a(n",k,G) =  0.000416

 Number of electrons calculated from density =   17.9911; Expected =   18.0000
 average of density, n =  0.018490
 r_s =    2.3460
 omega_plasma =   13.1167 [eV]


 === KS Band Gaps ===
  >>>> For spin  1
   Minimum optical gap =   2.1090 [eV], located at k-point      :   0.0000  0.0000  0.0000
   Fundamental gap     =   2.1090 [eV], Top of valence bands at :   0.0000  0.0000  0.0000
                                        Bottom of conduction at :   0.0000  0.0000  0.0000
 SIGMA fundamental parameters:
 PLASMON POLE MODEL  1
 number of plane-waves for SigmaX                 1031
 number of plane-waves for SigmaC and W           1031
 number of plane-waves for wavefunctions          2679
 number of bands                                   100
 number of independent spin polarizations            1
 number of spinorial components                      1
 number of k-points in IBZ                           1
 number of q-points in IBZ                           1
 number of symmetry operations                       1
 number of k-points in BZ                            1
 number of q-points in BZ                            1
 number of frequencies for dSigma/dE                 9
 frequency step for dSigma/dE [eV]                0.25
 number of omega for Sigma on real axis              0
 max omega for Sigma on real axis  [eV]           0.00
 zcut for avoiding poles [eV]                     0.10

 EPSILON^-1 parameters (SCR file):
 dimension of the eps^-1 matrix on file           1961
 dimension of the eps^-1 matrix used              1031
 number of plane-waves for wavefunctions           897
 number of bands                                    25
 number of q-points in IBZ                           1
 number of frequencies                               2
 number of real frequencies                          1
 number of imag frequencies                          1

 matrix elements of self-energy operator (all in [eV])

 Perturbative Calculation

 k =    0.000   0.000   0.000
 Band     E0 <VxcLDA>   SigX SigC(E0)      Z dSigC/dE  Sig(E)    E-E0       E
    9  -3.025 -15.629 -34.398   5.330   0.618  -0.619 -23.929  -8.299 -11.324
   10  -0.916 -12.433  -7.601  -4.820   0.641  -0.561 -12.425   0.008  -0.908

 E^0_gap          2.109
 E^GW_gap        10.416
 DeltaE^GW_gap    8.307


 New Fermi energy :       -7.862475E-02 Ha ,   -2.139488E+00 eV

 === QP Band Gaps ===
  >>>> For spin  1
   Minimum optical gap =  10.4160 [eV], located at k-point      :   0.0000  0.0000  0.0000
   Fundamental gap     =  10.4160 [eV], Top of valence bands at :   0.0000  0.0000  0.0000
                                        Bottom of conduction at :   0.0000  0.0000  0.0000

================================================================================
== DATASET  7 ==================================================================
-   nproc =   12

 mkfilename : getscr/=0, take file _SCR from output of DATASET   1.

 mkfilename : getkss/=0, take file _KSS from output of DATASET   1.

 Exchange-correlation functional for the present dataset will be:
  LDA: new Teter (4/93) with spin-polarized option - ixc=1
 Citation for XC functional:
  S. Goedecker, M. Teter, J. Huetter, PRB 54, 1703 (1996)
 
 SIGMA: Calculation of the GW corrections

 Based on a program developped by R.W. Godby, V. Olevano, G. Onida, and L. Reining.
 Incorporated in ABINIT by V. Olevano, G.-M. Rignanese, and M. Torrent.
.Using double precision arithmetic ; gwpc =  8

 Real(R)+Recip(G) space primitive vectors, cartesian coordinates (Bohr,Bohr^-1):
 R(1)=  4.0270179 -2.3249998  0.0000000  G(1)=  0.2483227  0.0000000  0.0000000
 R(2)=  0.0000000  8.0540353  0.0000000  G(2)=  0.0716846  0.1241614  0.0000000
 R(3)=  0.0000000  0.0000000 30.0000000  G(3)=  0.0000000  0.0000000  0.0333333
 Unit cell volume ucvol=  9.7301232E+02 bohr^3
 Angles (23,13,12)=  9.00000000E+01  9.00000000E+01  1.20000000E+02 degrees
--------------------------------------------------------------------------------

 ==== K-mesh for the wavefunctions ====
 Number of points in the irreducible wedge :     1
 Reduced coordinates and weights :

     1)     0.00000000E+00  0.00000000E+00  0.00000000E+00       1.00000

 Together with  1 symmetry operations and time-reversal symmetry 
 yields     1 points in the full Brillouin Zone.


 ==== Q-mesh for screening function ====
 Number of points in the irreducible wedge :     1
 Reduced coordinates and weights :

     1)     0.00000000E+00  0.00000000E+00  0.00000000E+00       1.00000

 Together with  1 symmetry operations and time-reversal symmetry 
 yields     1 points in the full Brillouin Zone.


 setmesh: FFT mesh size selected  =  15x 24x 96
          total number of points  =    34560


 k       eigenvalues [eV]
  1        -27.01 -19.63 -16.00 -14.77 -12.71  -6.52  -4.09  -3.37  -3.02  -0.92
             1.89   2.57   3.57   4.15   4.99   6.21   7.01   7.70   8.31   8.73
             9.69  10.88  11.20  11.88  12.50  13.06  13.31  13.68  13.96  14.08
            14.81  14.85  15.31  15.91  16.40  17.64  17.70  18.11  19.01  19.46
            19.77  20.37  21.28  22.13  22.29  22.69  24.05  24.44  25.19  25.32
            26.02  26.58  27.04  27.27  27.53  27.79  27.97  28.11  28.25  28.89
            29.44  29.61  29.72  30.44  30.87  31.09  31.21  31.32  31.72  32.62
            32.81  33.32  33.48  33.80  34.11  34.77  35.00  35.28  35.61  35.73
            36.00  36.21  36.69  36.87  37.19  37.40  37.53  37.74  37.97  38.08
            38.30  38.41  38.57  38.74  39.11  39.62  40.24  40.80  40.94  41.11


 test on the normalization of the wavefunctions
 min sum_G |a(n,k,G)| =  0.998989
 max sum_G |a(n,k,G)| =  0.999965
 test on the orthogonalization of the wavefunctions (NB: this is not invariant for degenerate states)
- min sum_G a(n,k,G)a(n",k,G) =  0.000000
- max sum_G a(n,k,G)a(n",k,G) =  0.000416

 Number of electrons calculated from density =   17.9911; Expected =   18.0000
 average of density, n =  0.018490
 r_s =    2.3460
 omega_plasma =   13.1167 [eV]


 === KS Band Gaps ===
  >>>> For spin  1
   Minimum optical gap =   2.1090 [eV], located at k-point      :   0.0000  0.0000  0.0000
   Fundamental gap     =   2.1090 [eV], Top of valence bands at :   0.0000  0.0000  0.0000
                                        Bottom of conduction at :   0.0000  0.0000  0.0000
 SIGMA fundamental parameters:
 PLASMON POLE MODEL  1
 number of plane-waves for SigmaX                 1237
 number of plane-waves for SigmaC and W           1237
 number of plane-waves for wavefunctions          2679
 number of bands                                   100
 number of independent spin polarizations            1
 number of spinorial components                      1
 number of k-points in IBZ                           1
 number of q-points in IBZ                           1
 number of symmetry operations                       1
 number of k-points in BZ                            1
 number of q-points in BZ                            1
 number of frequencies for dSigma/dE                 9
 frequency step for dSigma/dE [eV]                0.25
 number of omega for Sigma on real axis              0
 max omega for Sigma on real axis  [eV]           0.00
 zcut for avoiding poles [eV]                     0.10

 EPSILON^-1 parameters (SCR file):
 dimension of the eps^-1 matrix on file           1961
 dimension of the eps^-1 matrix used              1237
 number of plane-waves for wavefunctions           897
 number of bands                                    25
 number of q-points in IBZ                           1
 number of frequencies                               2
 number of real frequencies                          1
 number of imag frequencies                          1

 matrix elements of self-energy operator (all in [eV])

 Perturbative Calculation

 k =    0.000   0.000   0.000
 Band     E0 <VxcLDA>   SigX SigC(E0)      Z dSigC/dE  Sig(E)    E-E0       E
    9  -3.025 -15.629 -34.433   5.330   0.617  -0.621 -23.944  -8.315 -11.339
   10  -0.916 -12.433  -7.625  -4.819   0.640  -0.561 -12.440  -0.007  -0.923

 E^0_gap          2.109
 E^GW_gap        10.417
 DeltaE^GW_gap    8.308


 New Fermi energy :       -7.889948E-02 Ha ,   -2.146964E+00 eV

 === QP Band Gaps ===
  >>>> For spin  1
   Minimum optical gap =  10.4166 [eV], located at k-point      :   0.0000  0.0000  0.0000
   Fundamental gap     =  10.4166 [eV], Top of valence bands at :   0.0000  0.0000  0.0000
                                        Bottom of conduction at :   0.0000  0.0000  0.0000

== END DATASET(S) ==============================================================
================================================================================
  
 -outvars: echo values of variables after computation  --------
            acell      4.6499996960E+00  8.0540353180E+00  3.0000000000E+01 Bohr
              amu      1.00794000E+00  1.20110000E+01
             bdgw           9      10
             ecut      1.49989777E+01 Hartree
         ecutsigx1     2.99373071E+00 Hartree
         ecutsigx2     3.95676773E+00 Hartree
         ecutsigx3     4.98566840E+00 Hartree
         ecutsigx4     5.97262884E+00 Hartree
         ecutsigx5     6.99899618E+00 Hartree
         ecutsigx6     7.98463913E+00 Hartree
         ecutsigx7     8.92148308E+00 Hartree
          ecutwfn      1.49989777E+01 Hartree
           etotal1     0.0000000000E+00
           etotal2     0.0000000000E+00
           etotal3     0.0000000000E+00
           etotal4     0.0000000000E+00
           etotal5     0.0000000000E+00
           etotal6     0.0000000000E+00
           etotal7     0.0000000000E+00
            fcart1     0.0000000000E+00  0.0000000000E+00  0.0000000000E+00
                       0.0000000000E+00  0.0000000000E+00  0.0000000000E+00
                       0.0000000000E+00  0.0000000000E+00  0.0000000000E+00
                       0.0000000000E+00  0.0000000000E+00  0.0000000000E+00
                       0.0000000000E+00  0.0000000000E+00  0.0000000000E+00
                       0.0000000000E+00  0.0000000000E+00  0.0000000000E+00
            fcart2     0.0000000000E+00  0.0000000000E+00  0.0000000000E+00
                       0.0000000000E+00  0.0000000000E+00  0.0000000000E+00
                       0.0000000000E+00  0.0000000000E+00  0.0000000000E+00
                       0.0000000000E+00  0.0000000000E+00  0.0000000000E+00
                       0.0000000000E+00  0.0000000000E+00  0.0000000000E+00
                       0.0000000000E+00  0.0000000000E+00  0.0000000000E+00
            fcart3     0.0000000000E+00  0.0000000000E+00  0.0000000000E+00
                       0.0000000000E+00  0.0000000000E+00  0.0000000000E+00
                       0.0000000000E+00  0.0000000000E+00  0.0000000000E+00
                       0.0000000000E+00  0.0000000000E+00  0.0000000000E+00
                       0.0000000000E+00  0.0000000000E+00  0.0000000000E+00
                       0.0000000000E+00  0.0000000000E+00  0.0000000000E+00
            fcart4     0.0000000000E+00  0.0000000000E+00  0.0000000000E+00
                       0.0000000000E+00  0.0000000000E+00  0.0000000000E+00
                       0.0000000000E+00  0.0000000000E+00  0.0000000000E+00
                       0.0000000000E+00  0.0000000000E+00  0.0000000000E+00
                       0.0000000000E+00  0.0000000000E+00  0.0000000000E+00
                       0.0000000000E+00  0.0000000000E+00  0.0000000000E+00
            fcart5     0.0000000000E+00  0.0000000000E+00  0.0000000000E+00
                       0.0000000000E+00  0.0000000000E+00  0.0000000000E+00
                       0.0000000000E+00  0.0000000000E+00  0.0000000000E+00
                       0.0000000000E+00  0.0000000000E+00  0.0000000000E+00
                       0.0000000000E+00  0.0000000000E+00  0.0000000000E+00
                       0.0000000000E+00  0.0000000000E+00  0.0000000000E+00
            fcart6     0.0000000000E+00  0.0000000000E+00  0.0000000000E+00
                       0.0000000000E+00  0.0000000000E+00  0.0000000000E+00
                       0.0000000000E+00  0.0000000000E+00  0.0000000000E+00
                       0.0000000000E+00  0.0000000000E+00  0.0000000000E+00
                       0.0000000000E+00  0.0000000000E+00  0.0000000000E+00
                       0.0000000000E+00  0.0000000000E+00  0.0000000000E+00
            fcart7     0.0000000000E+00  0.0000000000E+00  0.0000000000E+00
                       0.0000000000E+00  0.0000000000E+00  0.0000000000E+00
                       0.0000000000E+00  0.0000000000E+00  0.0000000000E+00
                       0.0000000000E+00  0.0000000000E+00  0.0000000000E+00
                       0.0000000000E+00  0.0000000000E+00  0.0000000000E+00
                       0.0000000000E+00  0.0000000000E+00  0.0000000000E+00
           getkss           1
           getscr           1
             iscf           5
           istwfk        1
           jdtset        1    2    3    4    5    6    7
         kptrlatt        1    0    0      0    1    0      0    0    1
          kptrlen      4.64999970E+00
P           mkmem           1
            natom           6
            nband         100
           ndtset           7
            ngfft          18      30     108
             nkpt           1
           nkptgw           1
          npwsigx1        241
          npwsigx2        355
          npwsigx3        539
          npwsigx4        695
          npwsigx5        855
          npwsigx6       1031
          npwsigx7       1237
           npwwfn        2679
          nshsigx1        241
          nshsigx2        355
          nshsigx3        539
          nshsigx4        695
          nshsigx5        855
          nshsigx6       1031
          nshsigx7       1237
             nsym           1
           ntypat           2
              occ      2.000000  2.000000  2.000000  2.000000  2.000000  2.000000
                       2.000000  2.000000  2.000000  0.000000  0.000000  0.000000
                       0.000000  0.000000  0.000000  0.000000  0.000000  0.000000
                       0.000000  0.000000  0.000000  0.000000  0.000000  0.000000
                       0.000000  0.000000  0.000000  0.000000  0.000000  0.000000
                       0.000000  0.000000  0.000000  0.000000  0.000000  0.000000
                       0.000000  0.000000  0.000000  0.000000  0.000000  0.000000
                       0.000000  0.000000  0.000000  0.000000  0.000000  0.000000
                       0.000000  0.000000  0.000000  0.000000  0.000000  0.000000
                       0.000000  0.000000  0.000000  0.000000  0.000000  0.000000
                       0.000000  0.000000  0.000000  0.000000  0.000000  0.000000
                       0.000000  0.000000  0.000000  0.000000  0.000000  0.000000
                       0.000000  0.000000  0.000000  0.000000  0.000000  0.000000
                       0.000000  0.000000  0.000000  0.000000  0.000000  0.000000
                       0.000000  0.000000  0.000000  0.000000  0.000000  0.000000
                       0.000000  0.000000  0.000000  0.000000  0.000000  0.000000
                       0.000000  0.000000  0.000000  0.000000
        optdriver           4
           ppmfrq      6.13713734E-01 Hartree
            rprim      8.6602540378E-01 -5.0000000000E-01  0.0000000000E+00
                       0.0000000000E+00  1.0000000000E+00  0.0000000000E+00
                       0.0000000000E+00  0.0000000000E+00  1.0000000000E+00
          spgroup           1
           strten1     0.0000000000E+00  0.0000000000E+00  0.0000000000E+00
                       0.0000000000E+00  0.0000000000E+00  0.0000000000E+00
           strten2     0.0000000000E+00  0.0000000000E+00  0.0000000000E+00
                       0.0000000000E+00  0.0000000000E+00  0.0000000000E+00
           strten3     0.0000000000E+00  0.0000000000E+00  0.0000000000E+00
                       0.0000000000E+00  0.0000000000E+00  0.0000000000E+00
           strten4     0.0000000000E+00  0.0000000000E+00  0.0000000000E+00
                       0.0000000000E+00  0.0000000000E+00  0.0000000000E+00
           strten5     0.0000000000E+00  0.0000000000E+00  0.0000000000E+00
                       0.0000000000E+00  0.0000000000E+00  0.0000000000E+00
           strten6     0.0000000000E+00  0.0000000000E+00  0.0000000000E+00
                       0.0000000000E+00  0.0000000000E+00  0.0000000000E+00
           strten7     0.0000000000E+00  0.0000000000E+00  0.0000000000E+00
                       0.0000000000E+00  0.0000000000E+00  0.0000000000E+00
            typat      1  1  2  2  2  2
           xangst     -2.3812974387E-07  6.8561204582E-04  1.3610132864E+01
                       1.2303421832E+00  2.1299904870E+00  1.3609929832E+01
                      -2.3812974387E-07  2.2013480830E-03  1.2386786576E+01
                      -2.3812974387E-07  1.4188380540E+00  1.2155007896E+01
                       1.2303233752E+00  2.1324792476E+00  1.2387302099E+01
                       1.2303382361E+00  3.5490075256E+00  1.2146211489E+01
            xcart     -4.5000000000E-07  1.2956190000E-03  2.5719423746E+01
                       2.3250097760E+00  4.0250986860E+00  2.5719040070E+01
                      -4.5000000000E-07  4.1599450000E-03  2.3407634295E+01
                      -4.5000000000E-07  2.6812153490E+00  2.2969636067E+01
                       2.3249742340E+00  4.0298017620E+00  2.3408608492E+01
                       2.3250023170E+00  6.7066522670E+00  2.2953013267E+01
             xred     -1.1174522070E-07  1.6083356246E-04  8.5731412487E-01
                       5.7735273454E-01  6.6642912455E-01  8.5730133567E-01
                      -1.1174522070E-07  5.1647218173E-04  7.8025447650E-01
                      -1.1174522070E-07  3.3290331906E-01  7.6565453557E-01
                       5.7734390865E-01  6.6701051706E-01  7.8028694973E-01
                       5.7735088230E-01  9.9937393652E-01  7.6510044223E-01
            znucl        1.00000    6.00000

================================================================================


- Timing analysis has been suppressed with timopt=0



================================================================================

 Suggested references for the acknowledgment of ABINIT usage.

 The users of ABINIT have little formal obligations with respect to the ABINIT group
 (those specified in the GNU General Public License, http://www.gnu.org/copyleft/gpl.txt).
 However, it is common practice in the scientific literature,
 to acknowledge the efforts of people that have made the research possible.
 In this spirit, please find below suggested citations of work written by ABINIT developers,
 corresponding to implementations inside of ABINIT that you have used in the present run.
 Note also that it will be of great value to readers of publications presenting these results,
 to read papers enabling them to understand the theoretical formalism and details
 of the ABINIT implementation.
 For information on why they are suggested, see also http://www.abinit.org/about/?text=acknowledgments.

 [1] ABINIT : First-principles approach of materials and nanosystem properties.
 X. Gonze, B. Amadon, P.-M. Anglade, J.-M. Beuken, F. Bottin, P. Boulanger, F. Bruneval,
 D. Caliste, R. Caracas, M. Cote, T. Deutsch, L. Genovese, Ph. Ghosez, M. Giantomassi
 S. Goedecker, D.R. Hamann, P. Hermet, F. Jollet, G. Jomard, S. Leroux, M. Mancini, S. Mazevet,
 M.J.T. Oliveira, G. Onida, Y. Pouillon, T. Rangel, G.-M. Rignanese, D. Sangalli, R. Shaltaf,
 M. Torrent, M.J. Verstraete, G. Zerah, J.W. Zwanziger
 Computer Phys. Comm. 180, 2582-2615 (2009).
 Comment : the third generic paper describing the ABINIT project.
 Note that a version of this paper, that is not formatted for Computer Phys. Comm. 
 is available at http://www.abinit.org/about/ABINIT_CPC_v10.pdf .
 The licence allows the authors to put it on the Web.

 [2] A brief introduction to the ABINIT software package.
 X. Gonze, G.-M. Rignanese, M. Verstraete, J.-M. Beuken, Y. Pouillon, R. Caracas, F. Jollet,
 M. Torrent, G. Zerah, M. Mikami, Ph. Ghosez, M. Veithen, J.-Y. Raty, V. Olevano, F. Bruneval,
 L. Reining, R. Godby, G. Onida, D.R. Hamann, and D.C. Allan.
 Z. Kristallogr. 220, 558-562 (2005).
 Comment : the second generic paper describing the ABINIT project. Note that this paper
 should be cited especially if you are using the GW part of ABINIT, as several authors
 of this part are not in the list of authors of the first or third paper.
 The .pdf of the latter paper is available at http://www.abinit.org/about/zfk_0505-06_558-562.pdf.
 Note that it should not redistributed (Copyright by Oldenburg Wissenshaftverlag,
 the licence allows the authors to put it on the Web).


 And optionally :

 [3] First-principles computation of material properties : the ABINIT software project. 
 X. Gonze, J.-M. Beuken, R. Caracas, F. Detraux, M. Fuchs, G.-M. Rignanese, L. Sindic,
 M. Verstraete, G. Zerah, F. Jollet, M. Torrent, A. Roy, M. Mikami, Ph. Ghosez, J.-Y. Raty, D.C. Allan.
 Computational Materials Science 25, 478-492 (2002). http://dx.doi.org/10.1016/S0927-0256(02)00325-7
 Comment : the original paper describing the ABINIT project.

 [4] Fast radix 2, 3, 4 and 5 kernels for Fast Fourier Transformations
 on computers with overlapping multiply-add instructions.
 S. Goedecker, SIAM J. on Scientific Computing 18, 1605 (1997).

 [5] Towards a potential-based conjugate gradient algorithm for order-N self-consistent
 total energy calculations.
 X. Gonze, Phys. Rev. B 54, 4383 (1996).
 Comment : The potential-based conjugate-gradient algorithm, used when iscf=5, is not published.
 However, many elements of this algorithm have been explained in the paper above.
-
- Proc.   0 individual time (sec): cpu=         11.7  wall=         14.2

================================================================================

 Calculation completed.
.Delivered   66 WARNINGs and  56 COMMENTs to log file.
+Overall time at end (sec) : cpu=        163.4  wall=        169.6
