
.Version 7.0.5 of ABINIT 
.(MPI version, prepared for a x86_64_none_intel12.1 computer) 

.Copyright (C) 1998-2012 ABINIT group . 
 ABINIT comes with ABSOLUTELY NO WARRANTY.
 It is free software, and you are welcome to redistribute it
 under certain conditions (GNU General Public License,
 see ~abinit/COPYING or http://www.gnu.org/copyleft/gpl.txt).

 ABINIT is a project of the Universite Catholique de Louvain,
 Corning Inc. and other collaborators, see ~abinit/doc/developers/contributors.txt .
 Please read ~abinit/doc/users/acknowledgments.html for suggested
 acknowledgments of the ABINIT effort.
 For more information, see http://www.abinit.org .

.Starting date : Wed 31 Aug 2016.
- ( at  8h29 )
  

 herald :  WARNING -
  The starting date is more than 3 years after the initial release
  of this version of ABINIT, namely Jan 2013.
  This version of ABINIT is not supported anymore.
  Action : please, switch to a more recent version of ABINIT.
- input  file    -> up-gw1_9.in
- output file    -> up-gw1_9.out
- root for input  files -> up-gw1i
- root for output files -> up-gw1o


 DATASET    1 : space group P1 (#  1); Bravais aP (primitive triclinic)
================================================================================
 Values of the parameters that define the memory need for DATASET  1.
   intxc =         0  ionmov =         0    iscf =         5 xclevel =         1
  lmnmax =         1   lnmax =         1   mband =        10  mffmem =         1
P  mgfft =       108   mkmem =        66 mpssoang=         2     mpw =      2738
  mqgrid =      5231   natom =         6    nfft =     58320    nkpt =       784
  nloalg =         4  nspden =         1 nspinor =         1  nsppol =         1
    nsym =         1  n1xccc =      2501  ntypat =         2  occopt =         1
================================================================================
P This job should need less than                      45.530 Mbytes of memory.
  Rough estimation (10% accuracy) of disk space for files :
  WF disk file :    327.546 Mbytes ; DEN or POT disk file :      0.447 Mbytes.
================================================================================


 DATASET    2 : space group P1 (#  1); Bravais aP (primitive triclinic)
================================================================================
 Values of the parameters that define the memory need for DATASET  2.
   intxc =         0  ionmov =         0    iscf =        -2 xclevel =         1
  lmnmax =         1   lnmax =         1   mband =       105  mffmem =         1
P  mgfft =       108   mkmem =        66 mpssoang=         2     mpw =      2742
  mqgrid =      5231   natom =         6    nfft =     58320    nkpt =       788
  nloalg =         4  nspden =         1 nspinor =         1  nsppol =         1
    nsym =         1  n1xccc =      2501  ntypat =         2  occopt =         1
================================================================================
P This job should need less than                     322.020 Mbytes of memory.
  Rough estimation (10% accuracy) of disk space for files :
  WF disk file :   3461.810 Mbytes ; DEN or POT disk file :      0.447 Mbytes.
================================================================================


 DATASET    3 : space group P1 (#  1); Bravais aP (primitive triclinic)
================================================================================
 Values of the parameters that define the memory need for DATASET  3.
   intxc =         0  ionmov =         0    iscf =         5 xclevel =         1
  lmnmax =         1   lnmax =         1   mband =       400  mffmem =         1
P  mgfft =       125   mkmem =        66 mpssoang=         2     mpw =      4192
  mqgrid =      6035   natom =         6    nfft =     90000    nkpt =       788
  nloalg =         4  nspden =         1 nspinor =         1  nsppol =         1
    nsym =         1  n1xccc =      2501  ntypat =         2  occopt =         1
================================================================================
P This job should need less than                    1793.625 Mbytes of memory.
  Rough estimation (10% accuracy) of disk space for files :
  WF disk file :  20161.721 Mbytes ; DEN or POT disk file :      0.689 Mbytes.
================================================================================


 DATASET    4 : space group P1 (#  1); Bravais aP (primitive triclinic)
================================================================================
 Values of the parameters that define the memory need for DATASET  4.
   intxc =         0  ionmov =         0    iscf =         5 xclevel =         1
  lmnmax =         1   lnmax =         1   mband =       700  mffmem =         1
P  mgfft =       108   mkmem =        66 mpssoang=         2     mpw =      2742
  mqgrid =      5231   natom =         6    nfft =     58320    nkpt =       788
  nloalg =         4  nspden =         1 nspinor =         1  nsppol =         1
    nsym =         1  n1xccc =      2501  ntypat =         2  occopt =         1
================================================================================
P This job should need less than                    2095.091 Mbytes of memory.
  Rough estimation (10% accuracy) of disk space for files :
  WF disk file :  23078.725 Mbytes ; DEN or POT disk file :      0.447 Mbytes.
================================================================================

--------------------------------------------------------------------------------
------------- Echo of variables that govern the present computation ------------
--------------------------------------------------------------------------------
-
- outvars: echo of selected default values                                      
-   accesswff0 =  0 , fftalg0 =112 , wfoptalg0 =  0
-
- outvars: echo of global parameters not present in the input file              
-  max_nthreads =    0
-
 -outvars: echo values of preprocessed input variables --------
            acell      4.6499996960E+00  8.0540353180E+00  3.0000000000E+01 Bohr
              amu      1.00794000E+00  1.20110000E+01
             bdgw4          9      10
           diemac      1.20000000E+01
             ecut1     1.50000000E+01 Hartree
             ecut2     1.50000000E+01 Hartree
             ecut3     1.99686965E+01 Hartree
             ecut4     1.49989777E+01 Hartree
          ecuteps1     0.00000000E+00 Hartree
          ecuteps2     0.00000000E+00 Hartree
          ecuteps3     7.98463913E+00 Hartree
          ecuteps4     0.00000000E+00 Hartree
         ecutsigx1     0.00000000E+00 Hartree
         ecutsigx2     0.00000000E+00 Hartree
         ecutsigx3     0.00000000E+00 Hartree
         ecutsigx4     1.59887591E+01 Hartree
          ecutwfn1     0.00000000E+00 Hartree
          ecutwfn2     0.00000000E+00 Hartree
          ecutwfn3     1.99686965E+01 Hartree
          ecutwfn4     1.49989777E+01 Hartree
           getden1          0
           getden2         -1
           getden3          0
           getden4          0
           getkss1          0
           getkss2          0
           getkss3         -1
           getkss4         -2
           getscr1          0
           getscr2          0
           getscr3          0
           getscr4         -1
             iscf1          5
             iscf2         -2
             iscf3          5
             iscf4          5
           jdtset        1    2    3    4
              kpt1    -7.14285714E-02 -3.57142857E-02  0.00000000E+00
                      -3.57142857E-02 -7.14285714E-02  0.00000000E+00
                      -3.57142857E-02 -3.57142857E-02  2.50000000E-01
                      -1.42857143E-01 -3.57142857E-02  0.00000000E+00
                      -1.07142857E-01 -7.14285714E-02  0.00000000E+00
                      -7.14285714E-02 -1.07142857E-01  0.00000000E+00
                      -3.57142857E-02 -1.42857143E-01  0.00000000E+00
                      -1.07142857E-01 -3.57142857E-02  2.50000000E-01
                      -7.14285714E-02 -7.14285714E-02  2.50000000E-01
                      -3.57142857E-02 -1.07142857E-01  2.50000000E-01
                      -7.14285714E-02 -3.57142857E-02  5.00000000E-01
                      -3.57142857E-02 -7.14285714E-02  5.00000000E-01
                      -3.57142857E-02 -3.57142857E-02 -2.50000000E-01
                      -2.14285714E-01 -3.57142857E-02  0.00000000E+00
                      -1.78571429E-01 -7.14285714E-02  0.00000000E+00
                      -1.42857143E-01 -1.07142857E-01  0.00000000E+00
                      -1.07142857E-01 -1.42857143E-01  0.00000000E+00
                      -7.14285714E-02 -1.78571429E-01  0.00000000E+00
                      -3.57142857E-02 -2.14285714E-01  0.00000000E+00
                      -1.78571429E-01 -3.57142857E-02  2.50000000E-01
                      -1.42857143E-01 -7.14285714E-02  2.50000000E-01
                      -1.07142857E-01 -1.07142857E-01  2.50000000E-01
                      -7.14285714E-02 -1.42857143E-01  2.50000000E-01
                      -3.57142857E-02 -1.78571429E-01  2.50000000E-01
                      -1.42857143E-01 -3.57142857E-02  5.00000000E-01
                      -1.07142857E-01 -7.14285714E-02  5.00000000E-01
                      -7.14285714E-02 -1.07142857E-01  5.00000000E-01
                      -3.57142857E-02 -1.42857143E-01  5.00000000E-01
                      -1.07142857E-01 -3.57142857E-02 -2.50000000E-01
                      -7.14285714E-02 -7.14285714E-02 -2.50000000E-01
                      -3.57142857E-02 -1.07142857E-01 -2.50000000E-01
                      -2.85714286E-01 -3.57142857E-02  0.00000000E+00
                      -2.50000000E-01 -7.14285714E-02  0.00000000E+00
                      -2.14285714E-01 -1.07142857E-01  0.00000000E+00
                      -1.78571429E-01 -1.42857143E-01  0.00000000E+00
                      -1.42857143E-01 -1.78571429E-01  0.00000000E+00
                      -1.07142857E-01 -2.14285714E-01  0.00000000E+00
                      -7.14285714E-02 -2.50000000E-01  0.00000000E+00
                      -3.57142857E-02 -2.85714286E-01  0.00000000E+00
                      -2.50000000E-01 -3.57142857E-02  2.50000000E-01
                      -2.14285714E-01 -7.14285714E-02  2.50000000E-01
                      -1.78571429E-01 -1.07142857E-01  2.50000000E-01
                      -1.42857143E-01 -1.42857143E-01  2.50000000E-01
                      -1.07142857E-01 -1.78571429E-01  2.50000000E-01
                      -7.14285714E-02 -2.14285714E-01  2.50000000E-01
                      -3.57142857E-02 -2.50000000E-01  2.50000000E-01
                      -2.14285714E-01 -3.57142857E-02  5.00000000E-01
                      -1.78571429E-01 -7.14285714E-02  5.00000000E-01
                      -1.42857143E-01 -1.07142857E-01  5.00000000E-01
                      -1.07142857E-01 -1.42857143E-01  5.00000000E-01
              kpt2    -3.57142857E-02 -3.57142857E-02  0.00000000E+00
                      -1.07142857E-01 -3.57142857E-02  0.00000000E+00
                      -7.14285714E-02 -7.14285714E-02  0.00000000E+00
                      -3.57142857E-02 -1.07142857E-01  0.00000000E+00
                      -7.14285714E-02 -3.57142857E-02  2.50000000E-01
                      -3.57142857E-02 -7.14285714E-02  2.50000000E-01
                      -3.57142857E-02 -3.57142857E-02  5.00000000E-01
                      -1.78571429E-01 -3.57142857E-02  0.00000000E+00
                      -1.42857143E-01 -7.14285714E-02  0.00000000E+00
                      -1.07142857E-01 -1.07142857E-01  0.00000000E+00
                      -7.14285714E-02 -1.42857143E-01  0.00000000E+00
                      -3.57142857E-02 -1.78571429E-01  0.00000000E+00
                      -1.42857143E-01 -3.57142857E-02  2.50000000E-01
                      -1.07142857E-01 -7.14285714E-02  2.50000000E-01
                      -7.14285714E-02 -1.07142857E-01  2.50000000E-01
                      -3.57142857E-02 -1.42857143E-01  2.50000000E-01
                      -1.07142857E-01 -3.57142857E-02  5.00000000E-01
                      -7.14285714E-02 -7.14285714E-02  5.00000000E-01
                      -3.57142857E-02 -1.07142857E-01  5.00000000E-01
                      -7.14285714E-02 -3.57142857E-02 -2.50000000E-01
                      -3.57142857E-02 -7.14285714E-02 -2.50000000E-01
                      -2.50000000E-01 -3.57142857E-02  0.00000000E+00
                      -2.14285714E-01 -7.14285714E-02  0.00000000E+00
                      -1.78571429E-01 -1.07142857E-01  0.00000000E+00
                      -1.42857143E-01 -1.42857143E-01  0.00000000E+00
                      -1.07142857E-01 -1.78571429E-01  0.00000000E+00
                      -7.14285714E-02 -2.14285714E-01  0.00000000E+00
                      -3.57142857E-02 -2.50000000E-01  0.00000000E+00
                      -2.14285714E-01 -3.57142857E-02  2.50000000E-01
                      -1.78571429E-01 -7.14285714E-02  2.50000000E-01
                      -1.42857143E-01 -1.07142857E-01  2.50000000E-01
                      -1.07142857E-01 -1.42857143E-01  2.50000000E-01
                      -7.14285714E-02 -1.78571429E-01  2.50000000E-01
                      -3.57142857E-02 -2.14285714E-01  2.50000000E-01
                      -1.78571429E-01 -3.57142857E-02  5.00000000E-01
                      -1.42857143E-01 -7.14285714E-02  5.00000000E-01
                      -1.07142857E-01 -1.07142857E-01  5.00000000E-01
                      -7.14285714E-02 -1.42857143E-01  5.00000000E-01
                      -3.57142857E-02 -1.78571429E-01  5.00000000E-01
                      -1.42857143E-01 -3.57142857E-02 -2.50000000E-01
                      -1.07142857E-01 -7.14285714E-02 -2.50000000E-01
                      -7.14285714E-02 -1.07142857E-01 -2.50000000E-01
                      -3.57142857E-02 -1.42857143E-01 -2.50000000E-01
                      -3.21428571E-01 -3.57142857E-02  0.00000000E+00
                      -2.85714286E-01 -7.14285714E-02  0.00000000E+00
                      -2.50000000E-01 -1.07142857E-01  0.00000000E+00
                      -2.14285714E-01 -1.42857143E-01  0.00000000E+00
                      -1.78571429E-01 -1.78571429E-01  0.00000000E+00
                      -1.42857143E-01 -2.14285714E-01  0.00000000E+00
                      -1.07142857E-01 -2.50000000E-01  0.00000000E+00
              kpt3    -3.57142857E-02 -3.57142857E-02  0.00000000E+00
                      -1.07142857E-01 -3.57142857E-02  0.00000000E+00
                      -7.14285714E-02 -7.14285714E-02  0.00000000E+00
                      -3.57142857E-02 -1.07142857E-01  0.00000000E+00
                      -7.14285714E-02 -3.57142857E-02  2.50000000E-01
                      -3.57142857E-02 -7.14285714E-02  2.50000000E-01
                      -3.57142857E-02 -3.57142857E-02  5.00000000E-01
                      -1.78571429E-01 -3.57142857E-02  0.00000000E+00
                      -1.42857143E-01 -7.14285714E-02  0.00000000E+00
                      -1.07142857E-01 -1.07142857E-01  0.00000000E+00
                      -7.14285714E-02 -1.42857143E-01  0.00000000E+00
                      -3.57142857E-02 -1.78571429E-01  0.00000000E+00
                      -1.42857143E-01 -3.57142857E-02  2.50000000E-01
                      -1.07142857E-01 -7.14285714E-02  2.50000000E-01
                      -7.14285714E-02 -1.07142857E-01  2.50000000E-01
                      -3.57142857E-02 -1.42857143E-01  2.50000000E-01
                      -1.07142857E-01 -3.57142857E-02  5.00000000E-01
                      -7.14285714E-02 -7.14285714E-02  5.00000000E-01
                      -3.57142857E-02 -1.07142857E-01  5.00000000E-01
                      -7.14285714E-02 -3.57142857E-02 -2.50000000E-01
                      -3.57142857E-02 -7.14285714E-02 -2.50000000E-01
                      -2.50000000E-01 -3.57142857E-02  0.00000000E+00
                      -2.14285714E-01 -7.14285714E-02  0.00000000E+00
                      -1.78571429E-01 -1.07142857E-01  0.00000000E+00
                      -1.42857143E-01 -1.42857143E-01  0.00000000E+00
                      -1.07142857E-01 -1.78571429E-01  0.00000000E+00
                      -7.14285714E-02 -2.14285714E-01  0.00000000E+00
                      -3.57142857E-02 -2.50000000E-01  0.00000000E+00
                      -2.14285714E-01 -3.57142857E-02  2.50000000E-01
                      -1.78571429E-01 -7.14285714E-02  2.50000000E-01
                      -1.42857143E-01 -1.07142857E-01  2.50000000E-01
                      -1.07142857E-01 -1.42857143E-01  2.50000000E-01
                      -7.14285714E-02 -1.78571429E-01  2.50000000E-01
                      -3.57142857E-02 -2.14285714E-01  2.50000000E-01
                      -1.78571429E-01 -3.57142857E-02  5.00000000E-01
                      -1.42857143E-01 -7.14285714E-02  5.00000000E-01
                      -1.07142857E-01 -1.07142857E-01  5.00000000E-01
                      -7.14285714E-02 -1.42857143E-01  5.00000000E-01
                      -3.57142857E-02 -1.78571429E-01  5.00000000E-01
                      -1.42857143E-01 -3.57142857E-02 -2.50000000E-01
                      -1.07142857E-01 -7.14285714E-02 -2.50000000E-01
                      -7.14285714E-02 -1.07142857E-01 -2.50000000E-01
                      -3.57142857E-02 -1.42857143E-01 -2.50000000E-01
                      -3.21428571E-01 -3.57142857E-02  0.00000000E+00
                      -2.85714286E-01 -7.14285714E-02  0.00000000E+00
                      -2.50000000E-01 -1.07142857E-01  0.00000000E+00
                      -2.14285714E-01 -1.42857143E-01  0.00000000E+00
                      -1.78571429E-01 -1.78571429E-01  0.00000000E+00
                      -1.42857143E-01 -2.14285714E-01  0.00000000E+00
                      -1.07142857E-01 -2.50000000E-01  0.00000000E+00
              kpt4    -3.57142857E-02 -3.57142857E-02  0.00000000E+00
                      -1.07142857E-01 -3.57142857E-02  0.00000000E+00
                      -7.14285714E-02 -7.14285714E-02  0.00000000E+00
                      -3.57142857E-02 -1.07142857E-01  0.00000000E+00
                      -7.14285714E-02 -3.57142857E-02  2.50000000E-01
                      -3.57142857E-02 -7.14285714E-02  2.50000000E-01
                      -3.57142857E-02 -3.57142857E-02  5.00000000E-01
                      -1.78571429E-01 -3.57142857E-02  0.00000000E+00
                      -1.42857143E-01 -7.14285714E-02  0.00000000E+00
                      -1.07142857E-01 -1.07142857E-01  0.00000000E+00
                      -7.14285714E-02 -1.42857143E-01  0.00000000E+00
                      -3.57142857E-02 -1.78571429E-01  0.00000000E+00
                      -1.42857143E-01 -3.57142857E-02  2.50000000E-01
                      -1.07142857E-01 -7.14285714E-02  2.50000000E-01
                      -7.14285714E-02 -1.07142857E-01  2.50000000E-01
                      -3.57142857E-02 -1.42857143E-01  2.50000000E-01
                      -1.07142857E-01 -3.57142857E-02  5.00000000E-01
                      -7.14285714E-02 -7.14285714E-02  5.00000000E-01
                      -3.57142857E-02 -1.07142857E-01  5.00000000E-01
                      -7.14285714E-02 -3.57142857E-02 -2.50000000E-01
                      -3.57142857E-02 -7.14285714E-02 -2.50000000E-01
                      -2.50000000E-01 -3.57142857E-02  0.00000000E+00
                      -2.14285714E-01 -7.14285714E-02  0.00000000E+00
                      -1.78571429E-01 -1.07142857E-01  0.00000000E+00
                      -1.42857143E-01 -1.42857143E-01  0.00000000E+00
                      -1.07142857E-01 -1.78571429E-01  0.00000000E+00
                      -7.14285714E-02 -2.14285714E-01  0.00000000E+00
                      -3.57142857E-02 -2.50000000E-01  0.00000000E+00
                      -2.14285714E-01 -3.57142857E-02  2.50000000E-01
                      -1.78571429E-01 -7.14285714E-02  2.50000000E-01
                      -1.42857143E-01 -1.07142857E-01  2.50000000E-01
                      -1.07142857E-01 -1.42857143E-01  2.50000000E-01
                      -7.14285714E-02 -1.78571429E-01  2.50000000E-01
                      -3.57142857E-02 -2.14285714E-01  2.50000000E-01
                      -1.78571429E-01 -3.57142857E-02  5.00000000E-01
                      -1.42857143E-01 -7.14285714E-02  5.00000000E-01
                      -1.07142857E-01 -1.07142857E-01  5.00000000E-01
                      -7.14285714E-02 -1.42857143E-01  5.00000000E-01
                      -3.57142857E-02 -1.78571429E-01  5.00000000E-01
                      -1.42857143E-01 -3.57142857E-02 -2.50000000E-01
                      -1.07142857E-01 -7.14285714E-02 -2.50000000E-01
                      -7.14285714E-02 -1.07142857E-01 -2.50000000E-01
                      -3.57142857E-02 -1.42857143E-01 -2.50000000E-01
                      -3.21428571E-01 -3.57142857E-02  0.00000000E+00
                      -2.85714286E-01 -7.14285714E-02  0.00000000E+00
                      -2.50000000E-01 -1.07142857E-01  0.00000000E+00
                      -2.14285714E-01 -1.42857143E-01  0.00000000E+00
                      -1.78571429E-01 -1.78571429E-01  0.00000000E+00
                      -1.42857143E-01 -2.14285714E-01  0.00000000E+00
                      -1.07142857E-01 -2.50000000E-01  0.00000000E+00
                       outvar_i_n : Printing only first  50 k-points.
            kptgw4     0.00000000E+00  0.00000000E+00  0.00000000E+00
         kptrlatt       28    0    0     14   14    2    -14  -14    2
          kptrlen      1.30199991E+02
          kssform1          1
          kssform2          3
          kssform3          1
          kssform4          1
P           mkmem          66
            natom           6
            nband1         10
            nband2        105
            nband3        400
            nband4        700
         nbandkss1          0
         nbandkss2        100
         nbandkss3          0
         nbandkss4          0
           nbdbuf1          0
           nbdbuf2          5
           nbdbuf3          0
           nbdbuf4          0
           ndtset           4
            ngfft1         18      30     108
            ngfft2         18      30     108
            ngfft3         20      36     125
            ngfft4         18      30     108
             nkpt1        784
             nkpt2        788
             nkpt3        788
             nkpt4        788
           nkptgw1          0
           nkptgw2          0
           nkptgw3          0
           nkptgw4          1
            npkpt1         12
            npkpt2          1
            npkpt3          1
            npkpt4          1
           npweps1          0
           npweps2          0
           npweps3       1031
           npweps4          0
          npwsigx1          0
          npwsigx2          0
          npwsigx3          0
          npwsigx4       2961
           npwwfn1          0
           npwwfn2          0
           npwwfn3       4159
           npwwfn4       2679
           nsheps1          0
           nsheps2          0
           nsheps3       1031
           nsheps4          0
          nshsigx1          0
          nshsigx2          0
          nshsigx3          0
          nshsigx4       2961
            nstep         100
             nsym           1
           ntypat           2
              occ1     2.000000  2.000000  2.000000  2.000000  2.000000  2.000000
                       2.000000  2.000000  2.000000  0.000000
              occ3     2.000000  2.000000  2.000000  2.000000  2.000000  2.000000
                       2.000000  2.000000  2.000000  0.000000  0.000000  0.000000
                       0.000000  0.000000  0.000000  0.000000  0.000000  0.000000
                       0.000000  0.000000  0.000000  0.000000  0.000000  0.000000
                       0.000000  0.000000  0.000000  0.000000  0.000000  0.000000
                       0.000000  0.000000  0.000000  0.000000  0.000000  0.000000
                       0.000000  0.000000  0.000000  0.000000  0.000000  0.000000
                       0.000000  0.000000  0.000000  0.000000  0.000000  0.000000
                       0.000000  0.000000  0.000000  0.000000  0.000000  0.000000
                       0.000000  0.000000  0.000000  0.000000  0.000000  0.000000
                       0.000000  0.000000  0.000000  0.000000  0.000000  0.000000
                       0.000000  0.000000  0.000000  0.000000  0.000000  0.000000
                       0.000000  0.000000  0.000000  0.000000  0.000000  0.000000
                       0.000000  0.000000  0.000000  0.000000  0.000000  0.000000
                       0.000000  0.000000  0.000000  0.000000  0.000000  0.000000
                       0.000000  0.000000  0.000000  0.000000  0.000000  0.000000
                       0.000000  0.000000  0.000000  0.000000  0.000000  0.000000
                       0.000000  0.000000  0.000000  0.000000  0.000000  0.000000
                       0.000000  0.000000  0.000000  0.000000  0.000000  0.000000
                       0.000000  0.000000  0.000000  0.000000  0.000000  0.000000
                       0.000000  0.000000  0.000000  0.000000  0.000000  0.000000
                       0.000000  0.000000  0.000000  0.000000  0.000000  0.000000
                       0.000000  0.000000  0.000000  0.000000  0.000000  0.000000
                       0.000000  0.000000  0.000000  0.000000  0.000000  0.000000
                       0.000000  0.000000  0.000000  0.000000  0.000000  0.000000
                       0.000000  0.000000  0.000000  0.000000  0.000000  0.000000
                       0.000000  0.000000  0.000000  0.000000  0.000000  0.000000
                       0.000000  0.000000  0.000000  0.000000  0.000000  0.000000
                       0.000000  0.000000  0.000000  0.000000  0.000000  0.000000
                       0.000000  0.000000  0.000000  0.000000  0.000000  0.000000
                       0.000000  0.000000  0.000000  0.000000  0.000000  0.000000
                       0.000000  0.000000  0.000000  0.000000  0.000000  0.000000
                       0.000000  0.000000  0.000000  0.000000  0.000000  0.000000
                       0.000000  0.000000  0.000000  0.000000  0.000000  0.000000
                       0.000000  0.000000  0.000000  0.000000  0.000000  0.000000
                       0.000000  0.000000  0.000000  0.000000  0.000000  0.000000
                       0.000000  0.000000  0.000000  0.000000  0.000000  0.000000
                       0.000000  0.000000  0.000000  0.000000  0.000000  0.000000
                       0.000000  0.000000  0.000000  0.000000  0.000000  0.000000
                       0.000000  0.000000  0.000000  0.000000  0.000000  0.000000
                       0.000000  0.000000  0.000000  0.000000  0.000000  0.000000
                       0.000000  0.000000  0.000000  0.000000  0.000000  0.000000
                       0.000000  0.000000  0.000000  0.000000  0.000000  0.000000
                       0.000000  0.000000  0.000000  0.000000  0.000000  0.000000
                       0.000000  0.000000  0.000000  0.000000  0.000000  0.000000
                       0.000000  0.000000  0.000000  0.000000  0.000000  0.000000
                       0.000000  0.000000  0.000000  0.000000  0.000000  0.000000
                       0.000000  0.000000  0.000000  0.000000  0.000000  0.000000
                       0.000000  0.000000  0.000000  0.000000  0.000000  0.000000
                       0.000000  0.000000  0.000000  0.000000  0.000000  0.000000
                       0.000000  0.000000  0.000000  0.000000  0.000000  0.000000
                       0.000000  0.000000  0.000000  0.000000  0.000000  0.000000
                       0.000000  0.000000  0.000000  0.000000  0.000000  0.000000
                       0.000000  0.000000  0.000000  0.000000  0.000000  0.000000
                       0.000000  0.000000  0.000000  0.000000  0.000000  0.000000
                       0.000000  0.000000  0.000000  0.000000  0.000000  0.000000
                       0.000000  0.000000  0.000000  0.000000  0.000000  0.000000
                       0.000000  0.000000  0.000000  0.000000  0.000000  0.000000
                       0.000000  0.000000  0.000000  0.000000  0.000000  0.000000
                       0.000000  0.000000  0.000000  0.000000  0.000000  0.000000
                       0.000000  0.000000  0.000000  0.000000  0.000000  0.000000
                       0.000000  0.000000  0.000000  0.000000  0.000000  0.000000
                       0.000000  0.000000  0.000000  0.000000  0.000000  0.000000
                       0.000000  0.000000  0.000000  0.000000  0.000000  0.000000
                       0.000000  0.000000  0.000000  0.000000  0.000000  0.000000
                       0.000000  0.000000  0.000000  0.000000  0.000000  0.000000
                       0.000000  0.000000  0.000000  0.000000
              occ4     2.000000  2.000000  2.000000  2.000000  2.000000  2.000000
                       2.000000  2.000000  2.000000  0.000000  0.000000  0.000000
                       0.000000  0.000000  0.000000  0.000000  0.000000  0.000000
                       0.000000  0.000000  0.000000  0.000000  0.000000  0.000000
                       0.000000  0.000000  0.000000  0.000000  0.000000  0.000000
                       0.000000  0.000000  0.000000  0.000000  0.000000  0.000000
                       0.000000  0.000000  0.000000  0.000000  0.000000  0.000000
                       0.000000  0.000000  0.000000  0.000000  0.000000  0.000000
                       0.000000  0.000000  0.000000  0.000000  0.000000  0.000000
                       0.000000  0.000000  0.000000  0.000000  0.000000  0.000000
                       0.000000  0.000000  0.000000  0.000000  0.000000  0.000000
                       0.000000  0.000000  0.000000  0.000000  0.000000  0.000000
                       0.000000  0.000000  0.000000  0.000000  0.000000  0.000000
                       0.000000  0.000000  0.000000  0.000000  0.000000  0.000000
                       0.000000  0.000000  0.000000  0.000000  0.000000  0.000000
                       0.000000  0.000000  0.000000  0.000000  0.000000  0.000000
                       0.000000  0.000000  0.000000  0.000000  0.000000  0.000000
                       0.000000  0.000000  0.000000  0.000000  0.000000  0.000000
                       0.000000  0.000000  0.000000  0.000000  0.000000  0.000000
                       0.000000  0.000000  0.000000  0.000000  0.000000  0.000000
                       0.000000  0.000000  0.000000  0.000000  0.000000  0.000000
                       0.000000  0.000000  0.000000  0.000000  0.000000  0.000000
                       0.000000  0.000000  0.000000  0.000000  0.000000  0.000000
                       0.000000  0.000000  0.000000  0.000000  0.000000  0.000000
                       0.000000  0.000000  0.000000  0.000000  0.000000  0.000000
                       0.000000  0.000000  0.000000  0.000000  0.000000  0.000000
                       0.000000  0.000000  0.000000  0.000000  0.000000  0.000000
                       0.000000  0.000000  0.000000  0.000000  0.000000  0.000000
                       0.000000  0.000000  0.000000  0.000000  0.000000  0.000000
                       0.000000  0.000000  0.000000  0.000000  0.000000  0.000000
                       0.000000  0.000000  0.000000  0.000000  0.000000  0.000000
                       0.000000  0.000000  0.000000  0.000000  0.000000  0.000000
                       0.000000  0.000000  0.000000  0.000000  0.000000  0.000000
                       0.000000  0.000000  0.000000  0.000000  0.000000  0.000000
                       0.000000  0.000000  0.000000  0.000000  0.000000  0.000000
                       0.000000  0.000000  0.000000  0.000000  0.000000  0.000000
                       0.000000  0.000000  0.000000  0.000000  0.000000  0.000000
                       0.000000  0.000000  0.000000  0.000000  0.000000  0.000000
                       0.000000  0.000000  0.000000  0.000000  0.000000  0.000000
                       0.000000  0.000000  0.000000  0.000000  0.000000  0.000000
                       0.000000  0.000000  0.000000  0.000000  0.000000  0.000000
                       0.000000  0.000000  0.000000  0.000000  0.000000  0.000000
                       0.000000  0.000000  0.000000  0.000000  0.000000  0.000000
                       0.000000  0.000000  0.000000  0.000000  0.000000  0.000000
                       0.000000  0.000000  0.000000  0.000000  0.000000  0.000000
                       0.000000  0.000000  0.000000  0.000000  0.000000  0.000000
                       0.000000  0.000000  0.000000  0.000000  0.000000  0.000000
                       0.000000  0.000000  0.000000  0.000000  0.000000  0.000000
                       0.000000  0.000000  0.000000  0.000000  0.000000  0.000000
                       0.000000  0.000000  0.000000  0.000000  0.000000  0.000000
                       0.000000  0.000000  0.000000  0.000000  0.000000  0.000000
                       0.000000  0.000000  0.000000  0.000000  0.000000  0.000000
                       0.000000  0.000000  0.000000  0.000000  0.000000  0.000000
                       0.000000  0.000000  0.000000  0.000000  0.000000  0.000000
                       0.000000  0.000000  0.000000  0.000000  0.000000  0.000000
                       0.000000  0.000000  0.000000  0.000000  0.000000  0.000000
                       0.000000  0.000000  0.000000  0.000000  0.000000  0.000000
                       0.000000  0.000000  0.000000  0.000000  0.000000  0.000000
                       0.000000  0.000000  0.000000  0.000000  0.000000  0.000000
                       0.000000  0.000000  0.000000  0.000000  0.000000  0.000000
                       0.000000  0.000000  0.000000  0.000000  0.000000  0.000000
                       0.000000  0.000000  0.000000  0.000000  0.000000  0.000000
                       0.000000  0.000000  0.000000  0.000000  0.000000  0.000000
                       0.000000  0.000000  0.000000  0.000000  0.000000  0.000000
                       0.000000  0.000000  0.000000  0.000000  0.000000  0.000000
                       0.000000  0.000000  0.000000  0.000000  0.000000  0.000000
                       0.000000  0.000000  0.000000  0.000000  0.000000  0.000000
                       0.000000  0.000000  0.000000  0.000000  0.000000  0.000000
                       0.000000  0.000000  0.000000  0.000000  0.000000  0.000000
                       0.000000  0.000000  0.000000  0.000000  0.000000  0.000000
                       0.000000  0.000000  0.000000  0.000000  0.000000  0.000000
                       0.000000  0.000000  0.000000  0.000000  0.000000  0.000000
                       0.000000  0.000000  0.000000  0.000000  0.000000  0.000000
                       0.000000  0.000000  0.000000  0.000000  0.000000  0.000000
                       0.000000  0.000000  0.000000  0.000000  0.000000  0.000000
                       0.000000  0.000000  0.000000  0.000000  0.000000  0.000000
                       0.000000  0.000000  0.000000  0.000000  0.000000  0.000000
                       0.000000  0.000000  0.000000  0.000000  0.000000  0.000000
                       0.000000  0.000000  0.000000  0.000000  0.000000  0.000000
                       0.000000  0.000000  0.000000  0.000000  0.000000  0.000000
                       0.000000  0.000000  0.000000  0.000000  0.000000  0.000000
                       0.000000  0.000000  0.000000  0.000000  0.000000  0.000000
                       0.000000  0.000000  0.000000  0.000000  0.000000  0.000000
                       0.000000  0.000000  0.000000  0.000000  0.000000  0.000000
                       0.000000  0.000000  0.000000  0.000000  0.000000  0.000000
                       0.000000  0.000000  0.000000  0.000000  0.000000  0.000000
                       0.000000  0.000000  0.000000  0.000000  0.000000  0.000000
                       0.000000  0.000000  0.000000  0.000000  0.000000  0.000000
                       0.000000  0.000000  0.000000  0.000000  0.000000  0.000000
                       0.000000  0.000000  0.000000  0.000000  0.000000  0.000000
                       0.000000  0.000000  0.000000  0.000000  0.000000  0.000000
                       0.000000  0.000000  0.000000  0.000000  0.000000  0.000000
                       0.000000  0.000000  0.000000  0.000000  0.000000  0.000000
                       0.000000  0.000000  0.000000  0.000000  0.000000  0.000000
                       0.000000  0.000000  0.000000  0.000000  0.000000  0.000000
                       0.000000  0.000000  0.000000  0.000000  0.000000  0.000000
                       0.000000  0.000000  0.000000  0.000000  0.000000  0.000000
                       0.000000  0.000000  0.000000  0.000000  0.000000  0.000000
                       0.000000  0.000000  0.000000  0.000000  0.000000  0.000000
                       0.000000  0.000000  0.000000  0.000000  0.000000  0.000000
                       0.000000  0.000000  0.000000  0.000000  0.000000  0.000000
                       0.000000  0.000000  0.000000  0.000000  0.000000  0.000000
                       0.000000  0.000000  0.000000  0.000000  0.000000  0.000000
                       0.000000  0.000000  0.000000  0.000000  0.000000  0.000000
                       0.000000  0.000000  0.000000  0.000000  0.000000  0.000000
                       0.000000  0.000000  0.000000  0.000000  0.000000  0.000000
                       0.000000  0.000000  0.000000  0.000000  0.000000  0.000000
                       0.000000  0.000000  0.000000  0.000000  0.000000  0.000000
                       0.000000  0.000000  0.000000  0.000000  0.000000  0.000000
                       0.000000  0.000000  0.000000  0.000000  0.000000  0.000000
                       0.000000  0.000000  0.000000  0.000000  0.000000  0.000000
                       0.000000  0.000000  0.000000  0.000000  0.000000  0.000000
                       0.000000  0.000000  0.000000  0.000000  0.000000  0.000000
                       0.000000  0.000000  0.000000  0.000000  0.000000  0.000000
                       0.000000  0.000000  0.000000  0.000000  0.000000  0.000000
                       0.000000  0.000000  0.000000  0.000000  0.000000  0.000000
                       0.000000  0.000000  0.000000  0.000000
        optdriver1          0
        optdriver2          0
        optdriver3          3
        optdriver4          4
           ppmfrq1     0.00000000E+00 Hartree
           ppmfrq2     0.00000000E+00 Hartree
           ppmfrq3     6.13713734E-01 Hartree
           ppmfrq4     0.00000000E+00 Hartree
            rprim      8.6602540378E-01 -5.0000000000E-01  0.0000000000E+00
                       0.0000000000E+00  1.0000000000E+00  0.0000000000E+00
                       0.0000000000E+00  0.0000000000E+00  1.0000000000E+00
           shiftk1     0.00000000E+00  5.00000000E-01  5.00000000E-01
           shiftk2     0.00000000E+00  0.00000000E+00  0.00000000E+00
           shiftk3     0.00000000E+00  0.00000000E+00  0.00000000E+00
           shiftk4     0.00000000E+00  0.00000000E+00  0.00000000E+00
          spgroup           1
           tolwfr      1.00000000E-10
            typat      1  1  2  2  2  2
              wtk1       0.00128    0.00128    0.00128    0.00128    0.00128    0.00128
                         0.00128    0.00128    0.00128    0.00128    0.00128    0.00128
                         0.00128    0.00128    0.00128    0.00128    0.00128    0.00128
                         0.00128    0.00128    0.00128    0.00128    0.00128    0.00128
                         0.00128    0.00128    0.00128    0.00128    0.00128    0.00128
                         0.00128    0.00128    0.00128    0.00128    0.00128    0.00128
                         0.00128    0.00128    0.00128    0.00128    0.00128    0.00128
                         0.00128    0.00128    0.00128    0.00128    0.00128    0.00128
                         0.00128    0.00128
              wtk2       0.00128    0.00128    0.00128    0.00128    0.00128    0.00128
                         0.00128    0.00128    0.00128    0.00128    0.00128    0.00128
                         0.00128    0.00128    0.00128    0.00128    0.00128    0.00128
                         0.00128    0.00128    0.00128    0.00128    0.00128    0.00128
                         0.00128    0.00128    0.00128    0.00128    0.00128    0.00128
                         0.00128    0.00128    0.00128    0.00128    0.00128    0.00128
                         0.00128    0.00128    0.00128    0.00128    0.00128    0.00128
                         0.00128    0.00128    0.00128    0.00128    0.00128    0.00128
                         0.00128    0.00128
              wtk3       0.00128    0.00128    0.00128    0.00128    0.00128    0.00128
                         0.00128    0.00128    0.00128    0.00128    0.00128    0.00128
                         0.00128    0.00128    0.00128    0.00128    0.00128    0.00128
                         0.00128    0.00128    0.00128    0.00128    0.00128    0.00128
                         0.00128    0.00128    0.00128    0.00128    0.00128    0.00128
                         0.00128    0.00128    0.00128    0.00128    0.00128    0.00128
                         0.00128    0.00128    0.00128    0.00128    0.00128    0.00128
                         0.00128    0.00128    0.00128    0.00128    0.00128    0.00128
                         0.00128    0.00128
              wtk4       0.00128    0.00128    0.00128    0.00128    0.00128    0.00128
                         0.00128    0.00128    0.00128    0.00128    0.00128    0.00128
                         0.00128    0.00128    0.00128    0.00128    0.00128    0.00128
                         0.00128    0.00128    0.00128    0.00128    0.00128    0.00128
                         0.00128    0.00128    0.00128    0.00128    0.00128    0.00128
                         0.00128    0.00128    0.00128    0.00128    0.00128    0.00128
                         0.00128    0.00128    0.00128    0.00128    0.00128    0.00128
                         0.00128    0.00128    0.00128    0.00128    0.00128    0.00128
                         0.00128    0.00128
                       outvars : Printing only first  50 k-points.
           xangst     -2.3812974387E-07  6.8561204582E-04  1.3610132864E+01
                       1.2303421832E+00  2.1299904870E+00  1.3609929832E+01
                      -2.3812974387E-07  2.2013480830E-03  1.2386786576E+01
                      -2.3812974387E-07  1.4188380540E+00  1.2155007896E+01
                       1.2303233752E+00  2.1324792476E+00  1.2387302099E+01
                       1.2303382361E+00  3.5490075256E+00  1.2146211489E+01
            xcart     -4.5000000000E-07  1.2956190000E-03  2.5719423746E+01
                       2.3250097760E+00  4.0250986860E+00  2.5719040070E+01
                      -4.5000000000E-07  4.1599450000E-03  2.3407634295E+01
                      -4.5000000000E-07  2.6812153490E+00  2.2969636067E+01
                       2.3249742340E+00  4.0298017620E+00  2.3408608492E+01
                       2.3250023170E+00  6.7066522670E+00  2.2953013267E+01
             xred     -1.1174522070E-07  1.6083356246E-04  8.5731412487E-01
                       5.7735273454E-01  6.6642912455E-01  8.5730133567E-01
                      -1.1174522070E-07  5.1647218173E-04  7.8025447650E-01
                      -1.1174522070E-07  3.3290331906E-01  7.6565453557E-01
                       5.7734390865E-01  6.6701051706E-01  7.8028694973E-01
                       5.7735088230E-01  9.9937393652E-01  7.6510044223E-01
            znucl        1.00000    6.00000

================================================================================

 chkinp: Checking input parameters for consistency, jdtset=   1.

 chkinp: Checking input parameters for consistency, jdtset=   2.

 chkinp: Checking input parameters for consistency, jdtset=   3.

 chkinp: Checking input parameters for consistency, jdtset=   4.

================================================================================
== DATASET  1 ==================================================================
-   nproc =   12

 Exchange-correlation functional for the present dataset will be:
  LDA: new Teter (4/93) with spin-polarized option - ixc=1
 Citation for XC functional:
  S. Goedecker, M. Teter, J. Huetter, PRB 54, 1703 (1996)
 
 Real(R)+Recip(G) space primitive vectors, cartesian coordinates (Bohr,Bohr^-1):
 R(1)=  4.0270179 -2.3249998  0.0000000  G(1)=  0.2483227  0.0000000  0.0000000
 R(2)=  0.0000000  8.0540353  0.0000000  G(2)=  0.0716846  0.1241614  0.0000000
 R(3)=  0.0000000  0.0000000 30.0000000  G(3)=  0.0000000  0.0000000  0.0333333
 Unit cell volume ucvol=  9.7301232E+02 bohr^3
 Angles (23,13,12)=  9.00000000E+01  9.00000000E+01  1.20000000E+02 degrees

 getcut: wavevector=  0.0000  0.0000  0.0000  ngfft=  18  30 108
         ecut(hartree)=     15.000   => boxcut(ratio)=   2.06487

--- Pseudopotential description ------------------------------------------------
- pspini: atom type   1  psp file is /home/reinaldo/tiniba/pseudopotentials/pspnc/1h.pspnc
- pspatm: opening atomic psp file    /home/reinaldo/tiniba/pseudopotentials/pspnc/1h.pspnc
-  Troullier-Martins psp for element  H         Thu Oct 27 17:28:54 EDT 1994
-  1.00000   1.00000    940714                znucl, zion, pspdat
    1    1    0    0      2001   0.00000      pspcod,pspxc,lmax,lloc,mmax,r2well
    0   7.740  11.990    0   1.5855604        l,e99.0,e99.9,nproj,rcpsp
   0.00000000   0.00000000   0.00000000   0.00000000     rms, ekb1, ekb2, epsatm
    0.00000000000000    0.00000000000000    0.00000000000000   rchrg,fchrg,qchrg
 Note: local psp for atom with Z=  1.0
 pspatm: epsatm=    0.04198703
         --- l  ekb(1:nproj) -->
 pspatm: atomic psp has been read  and splines computed

- pspini: atom type   2  psp file is /home/reinaldo/tiniba/pseudopotentials/pspnc/6c.pspnc
- pspatm: opening atomic psp file    /home/reinaldo/tiniba/pseudopotentials/pspnc/6c.pspnc
-  Troullier-Martins psp for element  C         Thu Oct 27 17:29:33 EDT 1994
-  6.00000   4.00000    940714                znucl, zion, pspdat
    1    1    1    1      2001   0.00000      pspcod,pspxc,lmax,lloc,mmax,r2well
    0  10.372  24.987    1   1.4850707        l,e99.0,e99.9,nproj,rcpsp
   0.00000000   0.00000000   0.00000000   0.00000000     rms, ekb1, ekb2, epsatm
    1  15.431  21.987    0   1.4850707        l,e99.0,e99.9,nproj,rcpsp
   0.00000000   0.00000000   0.00000000   0.00000000     rms, ekb1, ekb2, epsatm
    0.83985002509544    0.99012430797080    0.51184907750884   rchrg,fchrg,qchrg
 pspatm: epsatm=    0.92590353
         --- l  ekb(1:nproj) -->
             0    4.921466
 pspatm: atomic psp has been read  and splines computed

   6.81765872E+01                                ecore*ucvol(ha*bohr**3)
--------------------------------------------------------------------------------

P newkpt: treating     10 bands with npw=    2655 for ikpt=   1 by node    0
P newkpt: treating     10 bands with npw=    2658 for ikpt=   2 by node    0
P newkpt: treating     10 bands with npw=    2663 for ikpt=   3 by node    0
P newkpt: treating     10 bands with npw=    2678 for ikpt=   4 by node    0
P newkpt: treating     10 bands with npw=    2671 for ikpt=   5 by node    0
P newkpt: treating     10 bands with npw=    2659 for ikpt=   6 by node    0
P newkpt: treating     10 bands with npw=    2667 for ikpt=   7 by node    0
P newkpt: treating     10 bands with npw=    2669 for ikpt=   8 by node    0
P newkpt: treating     10 bands with npw=    2665 for ikpt=   9 by node    0
P newkpt: treating     10 bands with npw=    2662 for ikpt=  10 by node    0
P newkpt: treating     10 bands with npw=    2662 for ikpt=  11 by node    0
P newkpt: treating     10 bands with npw=    2664 for ikpt=  12 by node    0
P newkpt: treating     10 bands with npw=    2663 for ikpt=  13 by node    0
P newkpt: treating     10 bands with npw=    2682 for ikpt=  14 by node    0
P newkpt: treating     10 bands with npw=    2681 for ikpt=  15 by node    0
P newkpt: treating     10 bands with npw=    2676 for ikpt=  16 by node    0
P newkpt: treating     10 bands with npw=    2675 for ikpt=  17 by node    0
P newkpt: treating     10 bands with npw=    2673 for ikpt=  18 by node    0
P newkpt: treating     10 bands with npw=    2668 for ikpt=  19 by node    0
P newkpt: treating     10 bands with npw=    2670 for ikpt=  20 by node    0
P newkpt: treating     10 bands with npw=    2675 for ikpt=  21 by node    0
P newkpt: treating     10 bands with npw=    2670 for ikpt=  22 by node    0
P newkpt: treating     10 bands with npw=    2667 for ikpt=  23 by node    0
P newkpt: treating     10 bands with npw=    2668 for ikpt=  24 by node    0
P newkpt: treating     10 bands with npw=    2666 for ikpt=  25 by node    0
P newkpt: treating     10 bands with npw=    2668 for ikpt=  26 by node    0
P newkpt: treating     10 bands with npw=    2662 for ikpt=  27 by node    0
P newkpt: treating     10 bands with npw=    2662 for ikpt=  28 by node    0
P newkpt: treating     10 bands with npw=    2669 for ikpt=  29 by node    0
P newkpt: treating     10 bands with npw=    2665 for ikpt=  30 by node    0
P newkpt: treating     10 bands with npw=    2662 for ikpt=  31 by node    0
P newkpt: treating     10 bands with npw=    2706 for ikpt=  32 by node    0
P newkpt: treating     10 bands with npw=    2698 for ikpt=  33 by node    0
P newkpt: treating     10 bands with npw=    2686 for ikpt=  34 by node    0
P newkpt: treating     10 bands with npw=    2680 for ikpt=  35 by node    0
P newkpt: treating     10 bands with npw=    2677 for ikpt=  36 by node    0
P newkpt: treating     10 bands with npw=    2681 for ikpt=  37 by node    0
P newkpt: treating     10 bands with npw=    2672 for ikpt=  38 by node    0
P newkpt: treating     10 bands with npw=    2669 for ikpt=  39 by node    0
P newkpt: treating     10 bands with npw=    2695 for ikpt=  40 by node    0
P newkpt: treating     10 bands with npw=    2683 for ikpt=  41 by node    0
P newkpt: treating     10 bands with npw=    2683 for ikpt=  42 by node    0
P newkpt: treating     10 bands with npw=    2672 for ikpt=  43 by node    0
P newkpt: treating     10 bands with npw=    2672 for ikpt=  44 by node    0
P newkpt: treating     10 bands with npw=    2671 for ikpt=  45 by node    0
P newkpt: treating     10 bands with npw=    2672 for ikpt=  46 by node    0
P newkpt: treating     10 bands with npw=    2688 for ikpt=  47 by node    0
P newkpt: treating     10 bands with npw=    2676 for ikpt=  48 by node    0
P newkpt: treating     10 bands with npw=    2678 for ikpt=  49 by node    0
P newkpt: treating     10 bands with npw=    2668 for ikpt=  50 by node    0
 newkpt: prtvol=0 or 1, do not print more k-points.
 
 setup2: Arith. and geom. avg. npw (full set) are    2699.992    2699.917

================================================================================

     iter   Etot(hartree)      deltaE(h)  residm     vres2
 ETOT  1  -24.132606505294    -2.413E+01 9.962E-02 4.180E+02
 ETOT  2  -24.333744751177    -2.011E-01 2.677E-02 4.574E+02
 ETOT  3  -24.339960611441    -6.216E-03 1.761E-02 4.060E+02
 ETOT  4  -24.318010254718     2.195E-02 9.271E-03 4.177E+02
 ETOT  5  -24.297642464227     2.037E-02 2.173E-03 4.375E+02
 ETOT  6  -24.345843470225    -4.820E-02 3.490E-03 4.186E+02
 ETOT  7  -24.375379783674    -2.954E-02 3.762E-03 1.180E+02
 ETOT  8  -24.384858124157    -9.478E-03 9.494E-04 1.757E+01
 ETOT  9  -24.385785615004    -9.275E-04 6.237E-04 7.633E+00
 ETOT 10  -24.386176564002    -3.909E-04 2.886E-04 2.032E+00
 ETOT 11  -24.386212152228    -3.559E-05 1.835E-04 1.707E+00
 ETOT 12  -24.386226303656    -1.415E-05 1.633E-04 1.236E+00
 ETOT 13  -24.386230734169    -4.431E-06 1.389E-04 1.079E+00
 ETOT 14  -24.386236456912    -5.723E-06 1.360E-04 8.351E-01
 ETOT 15  -24.386237719460    -1.263E-06 1.064E-04 5.768E-01
 ETOT 16  -24.386238176017    -4.566E-07 9.955E-05 4.825E-01
 ETOT 17  -24.386238362274    -1.863E-07 6.958E-05 3.778E-01
 ETOT 18  -24.386238430763    -6.849E-08 1.016E-04 2.800E-01
 ETOT 19  -24.386238455932    -2.517E-08 4.679E-05 3.113E-01
 ETOT 20  -24.386238446551     9.380E-09 9.108E-05 2.538E-01
 ETOT 21  -24.386238463991    -1.744E-08 3.895E-05 2.658E-01
 ETOT 22  -24.386238463679     3.119E-10 7.351E-05 2.524E-01
 ETOT 23  -24.386238455965     7.714E-09 3.005E-05 2.306E-01
 ETOT 24  -24.386238453764     2.200E-09 2.169E-05 2.076E-01
 ETOT 25  -24.386238451622     2.142E-09 1.498E-05 1.937E-01
 ETOT 26  -24.386238450486     1.137E-09 1.002E-05 1.844E-01
 ETOT 27  -24.386238449885     6.009E-10 6.566E-06 1.782E-01
 ETOT 28  -24.386238449533     3.516E-10 4.244E-06 1.740E-01
 ETOT 29  -24.386238449344     1.897E-10 2.719E-06 1.711E-01
 ETOT 30  -24.386238449238     1.050E-10 1.731E-06 1.691E-01
 ETOT 31  -24.386238449172     6.695E-11 1.098E-06 1.678E-01
 ETOT 32  -24.386238449114     5.738E-11 6.950E-07 1.668E-01
 ETOT 33  -24.386238449092     2.196E-11 4.391E-07 1.661E-01
 ETOT 34  -24.386238449059     3.303E-11 2.771E-07 1.657E-01
 ETOT 35  -24.386238449037     2.207E-11 1.747E-07 1.654E-01
