
.Version 7.0.5 of ABINIT 
.(MPI version, prepared for a x86_64_none_intel12.1 computer) 

.Copyright (C) 1998-2012 ABINIT group . 
 ABINIT comes with ABSOLUTELY NO WARRANTY.
 It is free software, and you are welcome to redistribute it
 under certain conditions (GNU General Public License,
 see ~abinit/COPYING or http://www.gnu.org/copyleft/gpl.txt).

 ABINIT is a project of the Universite Catholique de Louvain,
 Corning Inc. and other collaborators, see ~abinit/doc/developers/contributors.txt .
 Please read ~abinit/doc/users/acknowledgments.html for suggested
 acknowledgments of the ABINIT effort.
 For more information, see http://www.abinit.org .

.Starting date : Wed 31 Aug 2016.
- ( at  8h23 )
  

 herald :  WARNING -
  The starting date is more than 3 years after the initial release
  of this version of ABINIT, namely Jan 2013.
  This version of ABINIT is not supported anymore.
  Action : please, switch to a more recent version of ABINIT.
- input  file    -> up-gw1_9.in
- output file    -> up-gw1_9.out
- root for input  files -> up-gw1i
- root for output files -> up-gw1o


 DATASET    1 : space group P1 (#  1); Bravais aP (primitive triclinic)
================================================================================
 Values of the parameters that define the memory need for DATASET  1.
   intxc =         0  ionmov =         0    iscf =         5 xclevel =         1
  lmnmax =         1   lnmax =         1   mband =        10  mffmem =         1
P  mgfft =       108   mkmem =         6 mpssoang=         2     mpw =      2732
  mqgrid =      5231   natom =         6    nfft =     58320    nkpt =        64
  nloalg =         4  nspden =         1 nspinor =         1  nsppol =         1
    nsym =         1  n1xccc =      2501  ntypat =         2  occopt =         1
================================================================================
P This job should need less than                      16.818 Mbytes of memory.
  Rough estimation (10% accuracy) of disk space for files :
  WF disk file :     26.682 Mbytes ; DEN or POT disk file :      0.447 Mbytes.
================================================================================


 DATASET    2 : space group P1 (#  1); Bravais aP (primitive triclinic)
================================================================================
 Values of the parameters that define the memory need for DATASET  2.
   intxc =         0  ionmov =         0    iscf =        -2 xclevel =         1
  lmnmax =         1   lnmax =         1   mband =       105  mffmem =         1
P  mgfft =       108   mkmem =         6 mpssoang=         2     mpw =      2729
  mqgrid =      5231   natom =         6    nfft =     58320    nkpt =        68
  nloalg =         4  nspden =         1 nspinor =         1  nsppol =         1
    nsym =         1  n1xccc =      2501  ntypat =         2  occopt =         1
================================================================================
P This job should need less than                      37.961 Mbytes of memory.
  Rough estimation (10% accuracy) of disk space for files :
  WF disk file :    297.320 Mbytes ; DEN or POT disk file :      0.447 Mbytes.
================================================================================


 DATASET    3 : space group P1 (#  1); Bravais aP (primitive triclinic)
================================================================================
 Values of the parameters that define the memory need for DATASET  3.
   intxc =         0  ionmov =         0    iscf =         5 xclevel =         1
  lmnmax =         1   lnmax =         1   mband =       400  mffmem =         1
P  mgfft =       125   mkmem =         6 mpssoang=         2     mpw =      4188
  mqgrid =      6035   natom =         6    nfft =     90000    nkpt =        68
  nloalg =         4  nspden =         1 nspinor =         1  nsppol =         1
    nsym =         1  n1xccc =      2501  ntypat =         2  occopt =         1
================================================================================
P This job should need less than                     185.130 Mbytes of memory.
  Rough estimation (10% accuracy) of disk space for files :
  WF disk file :   1738.186 Mbytes ; DEN or POT disk file :      0.689 Mbytes.
================================================================================


 DATASET    4 : space group P1 (#  1); Bravais aP (primitive triclinic)
================================================================================
 Values of the parameters that define the memory need for DATASET  4.
   intxc =         0  ionmov =         0    iscf =         5 xclevel =         1
  lmnmax =         1   lnmax =         1   mband =       700  mffmem =         1
P  mgfft =       108   mkmem =         6 mpssoang=         2     mpw =      2729
  mqgrid =      5231   natom =         6    nfft =     58320    nkpt =        68
  nloalg =         4  nspden =         1 nspinor =         1  nsppol =         1
    nsym =         1  n1xccc =      2501  ntypat =         2  occopt =         1
================================================================================
P This job should need less than                     212.060 Mbytes of memory.
  Rough estimation (10% accuracy) of disk space for files :
  WF disk file :   1982.125 Mbytes ; DEN or POT disk file :      0.447 Mbytes.
================================================================================

--------------------------------------------------------------------------------
------------- Echo of variables that govern the present computation ------------
--------------------------------------------------------------------------------
-
- outvars: echo of selected default values                                      
-   accesswff0 =  0 , fftalg0 =112 , wfoptalg0 =  0
-
- outvars: echo of global parameters not present in the input file              
-  max_nthreads =    0
-
 -outvars: echo values of preprocessed input variables --------
            acell      4.6499996960E+00  8.0540353180E+00  3.0000000000E+01 Bohr
              amu      1.00794000E+00  1.20110000E+01
             bdgw4          9      10
           diemac      1.20000000E+01
             ecut1     1.50000000E+01 Hartree
             ecut2     1.50000000E+01 Hartree
             ecut3     1.99686965E+01 Hartree
             ecut4     1.49989777E+01 Hartree
          ecuteps1     0.00000000E+00 Hartree
          ecuteps2     0.00000000E+00 Hartree
          ecuteps3     7.98463913E+00 Hartree
          ecuteps4     0.00000000E+00 Hartree
         ecutsigx1     0.00000000E+00 Hartree
         ecutsigx2     0.00000000E+00 Hartree
         ecutsigx3     0.00000000E+00 Hartree
         ecutsigx4     1.59887591E+01 Hartree
          ecutwfn1     0.00000000E+00 Hartree
          ecutwfn2     0.00000000E+00 Hartree
          ecutwfn3     1.99686965E+01 Hartree
          ecutwfn4     1.49989777E+01 Hartree
           getden1          0
           getden2         -1
           getden3          0
           getden4          0
           getkss1          0
           getkss2          0
           getkss3         -1
           getkss4         -2
           getscr1          0
           getscr2          0
           getscr3          0
           getscr4         -1
             iscf1          5
             iscf2         -2
             iscf3          5
             iscf4          5
           istwfk2       0    0    0    0    0    0    0    0    0    0
                         0    0    0    0    0    0    0    0    0    0
                         0    0    0    0    1    0    0    0    0    0
                         0    0    0    0    0    0    0    0    0    0
                         0    0    0    0    0    0    0    0    0    0
           istwfk3       0    0    0    0    0    0    0    0    0    0
                         0    0    0    0    0    0    0    0    0    0
                         0    0    0    0    1    0    0    0    0    0
                         0    0    0    0    0    0    0    0    0    0
                         0    0    0    0    0    0    0    0    0    0
           istwfk4       0    0    0    0    0    0    0    0    0    0
                         0    0    0    0    0    0    0    0    0    0
                         0    0    0    0    1    0    0    0    0    0
                         0    0    0    0    0    0    0    0    0    0
                         0    0    0    0    0    0    0    0    0    0
                       outvar_i_n : Printing only first  50 k-points.
           jdtset        1    2    3    4
              kpt1    -2.50000000E-01 -1.25000000E-01  0.00000000E+00
                      -1.25000000E-01 -2.50000000E-01  0.00000000E+00
                      -1.25000000E-01 -1.25000000E-01  2.50000000E-01
                       5.00000000E-01 -1.25000000E-01  0.00000000E+00
                      -3.75000000E-01 -2.50000000E-01  0.00000000E+00
                      -2.50000000E-01 -3.75000000E-01  0.00000000E+00
                      -1.25000000E-01  5.00000000E-01  0.00000000E+00
                      -3.75000000E-01 -1.25000000E-01  2.50000000E-01
                      -2.50000000E-01 -2.50000000E-01  2.50000000E-01
                      -1.25000000E-01 -3.75000000E-01  2.50000000E-01
                      -2.50000000E-01 -1.25000000E-01  5.00000000E-01
                      -1.25000000E-01 -2.50000000E-01  5.00000000E-01
                      -1.25000000E-01 -1.25000000E-01 -2.50000000E-01
                       2.50000000E-01 -1.25000000E-01  0.00000000E+00
                       3.75000000E-01 -2.50000000E-01  0.00000000E+00
                       5.00000000E-01 -3.75000000E-01  0.00000000E+00
                      -3.75000000E-01  5.00000000E-01  0.00000000E+00
                      -2.50000000E-01  3.75000000E-01  0.00000000E+00
                      -1.25000000E-01  2.50000000E-01  0.00000000E+00
                       3.75000000E-01 -1.25000000E-01  2.50000000E-01
                       5.00000000E-01 -2.50000000E-01  2.50000000E-01
                      -3.75000000E-01 -3.75000000E-01  2.50000000E-01
                      -2.50000000E-01  5.00000000E-01  2.50000000E-01
                      -1.25000000E-01  3.75000000E-01  2.50000000E-01
                       5.00000000E-01 -1.25000000E-01  5.00000000E-01
                      -3.75000000E-01 -2.50000000E-01  5.00000000E-01
                      -2.50000000E-01 -3.75000000E-01  5.00000000E-01
                      -1.25000000E-01  5.00000000E-01  5.00000000E-01
                      -3.75000000E-01 -1.25000000E-01 -2.50000000E-01
                      -2.50000000E-01 -2.50000000E-01 -2.50000000E-01
                      -1.25000000E-01 -3.75000000E-01 -2.50000000E-01
                       0.00000000E+00 -1.25000000E-01  0.00000000E+00
                      -1.25000000E-01  0.00000000E+00  0.00000000E+00
                       1.25000000E-01 -1.25000000E-01  2.50000000E-01
                       2.50000000E-01 -2.50000000E-01  2.50000000E-01
                       3.75000000E-01 -3.75000000E-01  2.50000000E-01
                       5.00000000E-01  5.00000000E-01  2.50000000E-01
                      -3.75000000E-01  3.75000000E-01  2.50000000E-01
                      -2.50000000E-01  2.50000000E-01  2.50000000E-01
                      -1.25000000E-01  1.25000000E-01  2.50000000E-01
                       2.50000000E-01 -1.25000000E-01  5.00000000E-01
                       3.75000000E-01 -2.50000000E-01  5.00000000E-01
                       5.00000000E-01 -3.75000000E-01  5.00000000E-01
                      -3.75000000E-01  5.00000000E-01  5.00000000E-01
                      -2.50000000E-01  3.75000000E-01  5.00000000E-01
                      -1.25000000E-01  2.50000000E-01  5.00000000E-01
                       3.75000000E-01 -1.25000000E-01 -2.50000000E-01
                       5.00000000E-01 -2.50000000E-01 -2.50000000E-01
                      -3.75000000E-01 -3.75000000E-01 -2.50000000E-01
                      -2.50000000E-01  5.00000000E-01 -2.50000000E-01
              kpt2    -1.25000000E-01 -1.25000000E-01  0.00000000E+00
                      -3.75000000E-01 -1.25000000E-01  0.00000000E+00
                      -2.50000000E-01 -2.50000000E-01  0.00000000E+00
                      -1.25000000E-01 -3.75000000E-01  0.00000000E+00
                      -2.50000000E-01 -1.25000000E-01  2.50000000E-01
                      -1.25000000E-01 -2.50000000E-01  2.50000000E-01
                      -1.25000000E-01 -1.25000000E-01  5.00000000E-01
                       3.75000000E-01 -1.25000000E-01  0.00000000E+00
                       5.00000000E-01 -2.50000000E-01  0.00000000E+00
                      -3.75000000E-01 -3.75000000E-01  0.00000000E+00
                      -2.50000000E-01  5.00000000E-01  0.00000000E+00
                      -1.25000000E-01  3.75000000E-01  0.00000000E+00
                       5.00000000E-01 -1.25000000E-01  2.50000000E-01
                      -3.75000000E-01 -2.50000000E-01  2.50000000E-01
                      -2.50000000E-01 -3.75000000E-01  2.50000000E-01
                      -1.25000000E-01  5.00000000E-01  2.50000000E-01
                      -3.75000000E-01 -1.25000000E-01  5.00000000E-01
                      -2.50000000E-01 -2.50000000E-01  5.00000000E-01
                      -1.25000000E-01 -3.75000000E-01  5.00000000E-01
                      -2.50000000E-01 -1.25000000E-01 -2.50000000E-01
                      -1.25000000E-01 -2.50000000E-01 -2.50000000E-01
                       1.25000000E-01 -1.25000000E-01  0.00000000E+00
                       2.50000000E-01 -2.50000000E-01  0.00000000E+00
                       3.75000000E-01 -3.75000000E-01  0.00000000E+00
                       5.00000000E-01  5.00000000E-01  0.00000000E+00
                       2.50000000E-01 -1.25000000E-01  2.50000000E-01
                       3.75000000E-01 -2.50000000E-01  2.50000000E-01
                       5.00000000E-01 -3.75000000E-01  2.50000000E-01
                      -3.75000000E-01  5.00000000E-01  2.50000000E-01
                      -2.50000000E-01  3.75000000E-01  2.50000000E-01
                      -1.25000000E-01  2.50000000E-01  2.50000000E-01
                       3.75000000E-01 -1.25000000E-01  5.00000000E-01
                       5.00000000E-01 -2.50000000E-01  5.00000000E-01
                      -3.75000000E-01 -3.75000000E-01  5.00000000E-01
                      -2.50000000E-01  5.00000000E-01  5.00000000E-01
                      -1.25000000E-01  3.75000000E-01  5.00000000E-01
                       5.00000000E-01 -1.25000000E-01 -2.50000000E-01
                      -3.75000000E-01 -2.50000000E-01 -2.50000000E-01
                      -2.50000000E-01 -3.75000000E-01 -2.50000000E-01
                      -1.25000000E-01  5.00000000E-01 -2.50000000E-01
                       0.00000000E+00 -2.50000000E-01  0.00000000E+00
                      -2.50000000E-01  0.00000000E+00  0.00000000E+00
                       0.00000000E+00 -1.25000000E-01  2.50000000E-01
                       1.25000000E-01 -2.50000000E-01  2.50000000E-01
                       2.50000000E-01 -3.75000000E-01  2.50000000E-01
                       3.75000000E-01  5.00000000E-01  2.50000000E-01
                       5.00000000E-01  3.75000000E-01  2.50000000E-01
                      -3.75000000E-01  2.50000000E-01  2.50000000E-01
                      -2.50000000E-01  1.25000000E-01  2.50000000E-01
                      -1.25000000E-01  0.00000000E+00  2.50000000E-01
              kpt3    -1.25000000E-01 -1.25000000E-01  0.00000000E+00
                      -3.75000000E-01 -1.25000000E-01  0.00000000E+00
                      -2.50000000E-01 -2.50000000E-01  0.00000000E+00
                      -1.25000000E-01 -3.75000000E-01  0.00000000E+00
                      -2.50000000E-01 -1.25000000E-01  2.50000000E-01
                      -1.25000000E-01 -2.50000000E-01  2.50000000E-01
                      -1.25000000E-01 -1.25000000E-01  5.00000000E-01
                       3.75000000E-01 -1.25000000E-01  0.00000000E+00
                       5.00000000E-01 -2.50000000E-01  0.00000000E+00
                      -3.75000000E-01 -3.75000000E-01  0.00000000E+00
                      -2.50000000E-01  5.00000000E-01  0.00000000E+00
                      -1.25000000E-01  3.75000000E-01  0.00000000E+00
                       5.00000000E-01 -1.25000000E-01  2.50000000E-01
                      -3.75000000E-01 -2.50000000E-01  2.50000000E-01
                      -2.50000000E-01 -3.75000000E-01  2.50000000E-01
                      -1.25000000E-01  5.00000000E-01  2.50000000E-01
                      -3.75000000E-01 -1.25000000E-01  5.00000000E-01
                      -2.50000000E-01 -2.50000000E-01  5.00000000E-01
                      -1.25000000E-01 -3.75000000E-01  5.00000000E-01
                      -2.50000000E-01 -1.25000000E-01 -2.50000000E-01
                      -1.25000000E-01 -2.50000000E-01 -2.50000000E-01
                       1.25000000E-01 -1.25000000E-01  0.00000000E+00
                       2.50000000E-01 -2.50000000E-01  0.00000000E+00
                       3.75000000E-01 -3.75000000E-01  0.00000000E+00
                       5.00000000E-01  5.00000000E-01  0.00000000E+00
                       2.50000000E-01 -1.25000000E-01  2.50000000E-01
                       3.75000000E-01 -2.50000000E-01  2.50000000E-01
                       5.00000000E-01 -3.75000000E-01  2.50000000E-01
                      -3.75000000E-01  5.00000000E-01  2.50000000E-01
                      -2.50000000E-01  3.75000000E-01  2.50000000E-01
                      -1.25000000E-01  2.50000000E-01  2.50000000E-01
                       3.75000000E-01 -1.25000000E-01  5.00000000E-01
                       5.00000000E-01 -2.50000000E-01  5.00000000E-01
                      -3.75000000E-01 -3.75000000E-01  5.00000000E-01
                      -2.50000000E-01  5.00000000E-01  5.00000000E-01
                      -1.25000000E-01  3.75000000E-01  5.00000000E-01
                       5.00000000E-01 -1.25000000E-01 -2.50000000E-01
                      -3.75000000E-01 -2.50000000E-01 -2.50000000E-01
                      -2.50000000E-01 -3.75000000E-01 -2.50000000E-01
                      -1.25000000E-01  5.00000000E-01 -2.50000000E-01
                       0.00000000E+00 -2.50000000E-01  0.00000000E+00
                      -2.50000000E-01  0.00000000E+00  0.00000000E+00
                       0.00000000E+00 -1.25000000E-01  2.50000000E-01
                       1.25000000E-01 -2.50000000E-01  2.50000000E-01
                       2.50000000E-01 -3.75000000E-01  2.50000000E-01
                       3.75000000E-01  5.00000000E-01  2.50000000E-01
                       5.00000000E-01  3.75000000E-01  2.50000000E-01
                      -3.75000000E-01  2.50000000E-01  2.50000000E-01
                      -2.50000000E-01  1.25000000E-01  2.50000000E-01
                      -1.25000000E-01  0.00000000E+00  2.50000000E-01
              kpt4    -1.25000000E-01 -1.25000000E-01  0.00000000E+00
                      -3.75000000E-01 -1.25000000E-01  0.00000000E+00
                      -2.50000000E-01 -2.50000000E-01  0.00000000E+00
                      -1.25000000E-01 -3.75000000E-01  0.00000000E+00
                      -2.50000000E-01 -1.25000000E-01  2.50000000E-01
                      -1.25000000E-01 -2.50000000E-01  2.50000000E-01
                      -1.25000000E-01 -1.25000000E-01  5.00000000E-01
                       3.75000000E-01 -1.25000000E-01  0.00000000E+00
                       5.00000000E-01 -2.50000000E-01  0.00000000E+00
                      -3.75000000E-01 -3.75000000E-01  0.00000000E+00
                      -2.50000000E-01  5.00000000E-01  0.00000000E+00
                      -1.25000000E-01  3.75000000E-01  0.00000000E+00
                       5.00000000E-01 -1.25000000E-01  2.50000000E-01
                      -3.75000000E-01 -2.50000000E-01  2.50000000E-01
                      -2.50000000E-01 -3.75000000E-01  2.50000000E-01
                      -1.25000000E-01  5.00000000E-01  2.50000000E-01
                      -3.75000000E-01 -1.25000000E-01  5.00000000E-01
                      -2.50000000E-01 -2.50000000E-01  5.00000000E-01
                      -1.25000000E-01 -3.75000000E-01  5.00000000E-01
                      -2.50000000E-01 -1.25000000E-01 -2.50000000E-01
                      -1.25000000E-01 -2.50000000E-01 -2.50000000E-01
                       1.25000000E-01 -1.25000000E-01  0.00000000E+00
                       2.50000000E-01 -2.50000000E-01  0.00000000E+00
                       3.75000000E-01 -3.75000000E-01  0.00000000E+00
                       5.00000000E-01  5.00000000E-01  0.00000000E+00
                       2.50000000E-01 -1.25000000E-01  2.50000000E-01
                       3.75000000E-01 -2.50000000E-01  2.50000000E-01
                       5.00000000E-01 -3.75000000E-01  2.50000000E-01
                      -3.75000000E-01  5.00000000E-01  2.50000000E-01
                      -2.50000000E-01  3.75000000E-01  2.50000000E-01
                      -1.25000000E-01  2.50000000E-01  2.50000000E-01
                       3.75000000E-01 -1.25000000E-01  5.00000000E-01
                       5.00000000E-01 -2.50000000E-01  5.00000000E-01
                      -3.75000000E-01 -3.75000000E-01  5.00000000E-01
                      -2.50000000E-01  5.00000000E-01  5.00000000E-01
                      -1.25000000E-01  3.75000000E-01  5.00000000E-01
                       5.00000000E-01 -1.25000000E-01 -2.50000000E-01
                      -3.75000000E-01 -2.50000000E-01 -2.50000000E-01
                      -2.50000000E-01 -3.75000000E-01 -2.50000000E-01
                      -1.25000000E-01  5.00000000E-01 -2.50000000E-01
                       0.00000000E+00 -2.50000000E-01  0.00000000E+00
                      -2.50000000E-01  0.00000000E+00  0.00000000E+00
                       0.00000000E+00 -1.25000000E-01  2.50000000E-01
                       1.25000000E-01 -2.50000000E-01  2.50000000E-01
                       2.50000000E-01 -3.75000000E-01  2.50000000E-01
                       3.75000000E-01  5.00000000E-01  2.50000000E-01
                       5.00000000E-01  3.75000000E-01  2.50000000E-01
                      -3.75000000E-01  2.50000000E-01  2.50000000E-01
                      -2.50000000E-01  1.25000000E-01  2.50000000E-01
                      -1.25000000E-01  0.00000000E+00  2.50000000E-01
                       outvar_i_n : Printing only first  50 k-points.
            kptgw4     0.00000000E+00  0.00000000E+00  0.00000000E+00
         kptrlatt        8    0    0      8    8    0     -4   -4    2
          kptrlen      3.71999976E+01
          kssform1          1
          kssform2          3
          kssform3          1
          kssform4          1
P           mkmem           6
            natom           6
            nband1         10
            nband2        105
            nband3        400
            nband4        700
         nbandkss1          0
         nbandkss2        100
         nbandkss3          0
         nbandkss4          0
           nbdbuf1          0
           nbdbuf2          5
           nbdbuf3          0
           nbdbuf4          0
           ndtset           4
            ngfft1         18      30     108
            ngfft2         18      30     108
            ngfft3         20      36     125
            ngfft4         18      30     108
             nkpt1         64
             nkpt2         68
             nkpt3         68
             nkpt4         68
           nkptgw1          0
           nkptgw2          0
           nkptgw3          0
           nkptgw4          1
            npkpt1         12
            npkpt2          1
            npkpt3          1
            npkpt4          1
           npweps1          0
           npweps2          0
           npweps3       1031
           npweps4          0
          npwsigx1          0
          npwsigx2          0
          npwsigx3          0
          npwsigx4       2961
           npwwfn1          0
           npwwfn2          0
           npwwfn3       4159
           npwwfn4       2679
           nsheps1          0
           nsheps2          0
           nsheps3       1031
           nsheps4          0
          nshsigx1          0
          nshsigx2          0
          nshsigx3          0
          nshsigx4       2961
            nstep         100
             nsym           1
           ntypat           2
              occ1     2.000000  2.000000  2.000000  2.000000  2.000000  2.000000
                       2.000000  2.000000  2.000000  0.000000
              occ3     2.000000  2.000000  2.000000  2.000000  2.000000  2.000000
                       2.000000  2.000000  2.000000  0.000000  0.000000  0.000000
                       0.000000  0.000000  0.000000  0.000000  0.000000  0.000000
                       0.000000  0.000000  0.000000  0.000000  0.000000  0.000000
                       0.000000  0.000000  0.000000  0.000000  0.000000  0.000000
                       0.000000  0.000000  0.000000  0.000000  0.000000  0.000000
                       0.000000  0.000000  0.000000  0.000000  0.000000  0.000000
                       0.000000  0.000000  0.000000  0.000000  0.000000  0.000000
                       0.000000  0.000000  0.000000  0.000000  0.000000  0.000000
                       0.000000  0.000000  0.000000  0.000000  0.000000  0.000000
                       0.000000  0.000000  0.000000  0.000000  0.000000  0.000000
                       0.000000  0.000000  0.000000  0.000000  0.000000  0.000000
                       0.000000  0.000000  0.000000  0.000000  0.000000  0.000000
                       0.000000  0.000000  0.000000  0.000000  0.000000  0.000000
                       0.000000  0.000000  0.000000  0.000000  0.000000  0.000000
                       0.000000  0.000000  0.000000  0.000000  0.000000  0.000000
                       0.000000  0.000000  0.000000  0.000000  0.000000  0.000000
                       0.000000  0.000000  0.000000  0.000000  0.000000  0.000000
                       0.000000  0.000000  0.000000  0.000000  0.000000  0.000000
                       0.000000  0.000000  0.000000  0.000000  0.000000  0.000000
                       0.000000  0.000000  0.000000  0.000000  0.000000  0.000000
                       0.000000  0.000000  0.000000  0.000000  0.000000  0.000000
                       0.000000  0.000000  0.000000  0.000000  0.000000  0.000000
                       0.000000  0.000000  0.000000  0.000000  0.000000  0.000000
                       0.000000  0.000000  0.000000  0.000000  0.000000  0.000000
                       0.000000  0.000000  0.000000  0.000000  0.000000  0.000000
                       0.000000  0.000000  0.000000  0.000000  0.000000  0.000000
                       0.000000  0.000000  0.000000  0.000000  0.000000  0.000000
                       0.000000  0.000000  0.000000  0.000000  0.000000  0.000000
                       0.000000  0.000000  0.000000  0.000000  0.000000  0.000000
                       0.000000  0.000000  0.000000  0.000000  0.000000  0.000000
                       0.000000  0.000000  0.000000  0.000000  0.000000  0.000000
                       0.000000  0.000000  0.000000  0.000000  0.000000  0.000000
                       0.000000  0.000000  0.000000  0.000000  0.000000  0.000000
                       0.000000  0.000000  0.000000  0.000000  0.000000  0.000000
                       0.000000  0.000000  0.000000  0.000000  0.000000  0.000000
                       0.000000  0.000000  0.000000  0.000000  0.000000  0.000000
                       0.000000  0.000000  0.000000  0.000000  0.000000  0.000000
                       0.000000  0.000000  0.000000  0.000000  0.000000  0.000000
                       0.000000  0.000000  0.000000  0.000000  0.000000  0.000000
                       0.000000  0.000000  0.000000  0.000000  0.000000  0.000000
                       0.000000  0.000000  0.000000  0.000000  0.000000  0.000000
                       0.000000  0.000000  0.000000  0.000000  0.000000  0.000000
                       0.000000  0.000000  0.000000  0.000000  0.000000  0.000000
                       0.000000  0.000000  0.000000  0.000000  0.000000  0.000000
                       0.000000  0.000000  0.000000  0.000000  0.000000  0.000000
                       0.000000  0.000000  0.000000  0.000000  0.000000  0.000000
                       0.000000  0.000000  0.000000  0.000000  0.000000  0.000000
                       0.000000  0.000000  0.000000  0.000000  0.000000  0.000000
                       0.000000  0.000000  0.000000  0.000000  0.000000  0.000000
                       0.000000  0.000000  0.000000  0.000000  0.000000  0.000000
                       0.000000  0.000000  0.000000  0.000000  0.000000  0.000000
                       0.000000  0.000000  0.000000  0.000000  0.000000  0.000000
                       0.000000  0.000000  0.000000  0.000000  0.000000  0.000000
                       0.000000  0.000000  0.000000  0.000000  0.000000  0.000000
                       0.000000  0.000000  0.000000  0.000000  0.000000  0.000000
                       0.000000  0.000000  0.000000  0.000000  0.000000  0.000000
                       0.000000  0.000000  0.000000  0.000000  0.000000  0.000000
                       0.000000  0.000000  0.000000  0.000000  0.000000  0.000000
                       0.000000  0.000000  0.000000  0.000000  0.000000  0.000000
                       0.000000  0.000000  0.000000  0.000000  0.000000  0.000000
                       0.000000  0.000000  0.000000  0.000000  0.000000  0.000000
                       0.000000  0.000000  0.000000  0.000000  0.000000  0.000000
                       0.000000  0.000000  0.000000  0.000000  0.000000  0.000000
                       0.000000  0.000000  0.000000  0.000000  0.000000  0.000000
                       0.000000  0.000000  0.000000  0.000000  0.000000  0.000000
                       0.000000  0.000000  0.000000  0.000000
              occ4     2.000000  2.000000  2.000000  2.000000  2.000000  2.000000
                       2.000000  2.000000  2.000000  0.000000  0.000000  0.000000
                       0.000000  0.000000  0.000000  0.000000  0.000000  0.000000
                       0.000000  0.000000  0.000000  0.000000  0.000000  0.000000
                       0.000000  0.000000  0.000000  0.000000  0.000000  0.000000
                       0.000000  0.000000  0.000000  0.000000  0.000000  0.000000
                       0.000000  0.000000  0.000000  0.000000  0.000000  0.000000
                       0.000000  0.000000  0.000000  0.000000  0.000000  0.000000
                       0.000000  0.000000  0.000000  0.000000  0.000000  0.000000
                       0.000000  0.000000  0.000000  0.000000  0.000000  0.000000
                       0.000000  0.000000  0.000000  0.000000  0.000000  0.000000
                       0.000000  0.000000  0.000000  0.000000  0.000000  0.000000
                       0.000000  0.000000  0.000000  0.000000  0.000000  0.000000
                       0.000000  0.000000  0.000000  0.000000  0.000000  0.000000
                       0.000000  0.000000  0.000000  0.000000  0.000000  0.000000
                       0.000000  0.000000  0.000000  0.000000  0.000000  0.000000
                       0.000000  0.000000  0.000000  0.000000  0.000000  0.000000
                       0.000000  0.000000  0.000000  0.000000  0.000000  0.000000
                       0.000000  0.000000  0.000000  0.000000  0.000000  0.000000
                       0.000000  0.000000  0.000000  0.000000  0.000000  0.000000
                       0.000000  0.000000  0.000000  0.000000  0.000000  0.000000
                       0.000000  0.000000  0.000000  0.000000  0.000000  0.000000
                       0.000000  0.000000  0.000000  0.000000  0.000000  0.000000
                       0.000000  0.000000  0.000000  0.000000  0.000000  0.000000
                       0.000000  0.000000  0.000000  0.000000  0.000000  0.000000
                       0.000000  0.000000  0.000000  0.000000  0.000000  0.000000
                       0.000000  0.000000  0.000000  0.000000  0.000000  0.000000
                       0.000000  0.000000  0.000000  0.000000  0.000000  0.000000
                       0.000000  0.000000  0.000000  0.000000  0.000000  0.000000
                       0.000000  0.000000  0.000000  0.000000  0.000000  0.000000
                       0.000000  0.000000  0.000000  0.000000  0.000000  0.000000
                       0.000000  0.000000  0.000000  0.000000  0.000000  0.000000
                       0.000000  0.000000  0.000000  0.000000  0.000000  0.000000
                       0.000000  0.000000  0.000000  0.000000  0.000000  0.000000
                       0.000000  0.000000  0.000000  0.000000  0.000000  0.000000
                       0.000000  0.000000  0.000000  0.000000  0.000000  0.000000
                       0.000000  0.000000  0.000000  0.000000  0.000000  0.000000
                       0.000000  0.000000  0.000000  0.000000  0.000000  0.000000
                       0.000000  0.000000  0.000000  0.000000  0.000000  0.000000
                       0.000000  0.000000  0.000000  0.000000  0.000000  0.000000
                       0.000000  0.000000  0.000000  0.000000  0.000000  0.000000
                       0.000000  0.000000  0.000000  0.000000  0.000000  0.000000
                       0.000000  0.000000  0.000000  0.000000  0.000000  0.000000
                       0.000000  0.000000  0.000000  0.000000  0.000000  0.000000
                       0.000000  0.000000  0.000000  0.000000  0.000000  0.000000
                       0.000000  0.000000  0.000000  0.000000  0.000000  0.000000
                       0.000000  0.000000  0.000000  0.000000  0.000000  0.000000
                       0.000000  0.000000  0.000000  0.000000  0.000000  0.000000
                       0.000000  0.000000  0.000000  0.000000  0.000000  0.000000
                       0.000000  0.000000  0.000000  0.000000  0.000000  0.000000
                       0.000000  0.000000  0.000000  0.000000  0.000000  0.000000
                       0.000000  0.000000  0.000000  0.000000  0.000000  0.000000
                       0.000000  0.000000  0.000000  0.000000  0.000000  0.000000
                       0.000000  0.000000  0.000000  0.000000  0.000000  0.000000
                       0.000000  0.000000  0.000000  0.000000  0.000000  0.000000
                       0.000000  0.000000  0.000000  0.000000  0.000000  0.000000
                       0.000000  0.000000  0.000000  0.000000  0.000000  0.000000
                       0.000000  0.000000  0.000000  0.000000  0.000000  0.000000
                       0.000000  0.000000  0.000000  0.000000  0.000000  0.000000
                       0.000000  0.000000  0.000000  0.000000  0.000000  0.000000
                       0.000000  0.000000  0.000000  0.000000  0.000000  0.000000
                       0.000000  0.000000  0.000000  0.000000  0.000000  0.000000
                       0.000000  0.000000  0.000000  0.000000  0.000000  0.000000
                       0.000000  0.000000  0.000000  0.000000  0.000000  0.000000
                       0.000000  0.000000  0.000000  0.000000  0.000000  0.000000
                       0.000000  0.000000  0.000000  0.000000  0.000000  0.000000
                       0.000000  0.000000  0.000000  0.000000  0.000000  0.000000
                       0.000000  0.000000  0.000000  0.000000  0.000000  0.000000
                       0.000000  0.000000  0.000000  0.000000  0.000000  0.000000
                       0.000000  0.000000  0.000000  0.000000  0.000000  0.000000
                       0.000000  0.000000  0.000000  0.000000  0.000000  0.000000
                       0.000000  0.000000  0.000000  0.000000  0.000000  0.000000
                       0.000000  0.000000  0.000000  0.000000  0.000000  0.000000
                       0.000000  0.000000  0.000000  0.000000  0.000000  0.000000
                       0.000000  0.000000  0.000000  0.000000  0.000000  0.000000
                       0.000000  0.000000  0.000000  0.000000  0.000000  0.000000
                       0.000000  0.000000  0.000000  0.000000  0.000000  0.000000
                       0.000000  0.000000  0.000000  0.000000  0.000000  0.000000
                       0.000000  0.000000  0.000000  0.000000  0.000000  0.000000
                       0.000000  0.000000  0.000000  0.000000  0.000000  0.000000
                       0.000000  0.000000  0.000000  0.000000  0.000000  0.000000
                       0.000000  0.000000  0.000000  0.000000  0.000000  0.000000
                       0.000000  0.000000  0.000000  0.000000  0.000000  0.000000
                       0.000000  0.000000  0.000000  0.000000  0.000000  0.000000
                       0.000000  0.000000  0.000000  0.000000  0.000000  0.000000
                       0.000000  0.000000  0.000000  0.000000  0.000000  0.000000
                       0.000000  0.000000  0.000000  0.000000  0.000000  0.000000
                       0.000000  0.000000  0.000000  0.000000  0.000000  0.000000
                       0.000000  0.000000  0.000000  0.000000  0.000000  0.000000
                       0.000000  0.000000  0.000000  0.000000  0.000000  0.000000
                       0.000000  0.000000  0.000000  0.000000  0.000000  0.000000
                       0.000000  0.000000  0.000000  0.000000  0.000000  0.000000
                       0.000000  0.000000  0.000000  0.000000  0.000000  0.000000
                       0.000000  0.000000  0.000000  0.000000  0.000000  0.000000
                       0.000000  0.000000  0.000000  0.000000  0.000000  0.000000
                       0.000000  0.000000  0.000000  0.000000  0.000000  0.000000
                       0.000000  0.000000  0.000000  0.000000  0.000000  0.000000
                       0.000000  0.000000  0.000000  0.000000  0.000000  0.000000
                       0.000000  0.000000  0.000000  0.000000  0.000000  0.000000
                       0.000000  0.000000  0.000000  0.000000  0.000000  0.000000
                       0.000000  0.000000  0.000000  0.000000  0.000000  0.000000
                       0.000000  0.000000  0.000000  0.000000  0.000000  0.000000
                       0.000000  0.000000  0.000000  0.000000  0.000000  0.000000
                       0.000000  0.000000  0.000000  0.000000  0.000000  0.000000
                       0.000000  0.000000  0.000000  0.000000  0.000000  0.000000
                       0.000000  0.000000  0.000000  0.000000  0.000000  0.000000
                       0.000000  0.000000  0.000000  0.000000  0.000000  0.000000
                       0.000000  0.000000  0.000000  0.000000  0.000000  0.000000
                       0.000000  0.000000  0.000000  0.000000  0.000000  0.000000
                       0.000000  0.000000  0.000000  0.000000  0.000000  0.000000
                       0.000000  0.000000  0.000000  0.000000  0.000000  0.000000
                       0.000000  0.000000  0.000000  0.000000  0.000000  0.000000
                       0.000000  0.000000  0.000000  0.000000  0.000000  0.000000
                       0.000000  0.000000  0.000000  0.000000  0.000000  0.000000
                       0.000000  0.000000  0.000000  0.000000  0.000000  0.000000
                       0.000000  0.000000  0.000000  0.000000  0.000000  0.000000
                       0.000000  0.000000  0.000000  0.000000
        optdriver1          0
        optdriver2          0
        optdriver3          3
        optdriver4          4
           ppmfrq1     0.00000000E+00 Hartree
           ppmfrq2     0.00000000E+00 Hartree
           ppmfrq3     6.13713734E-01 Hartree
           ppmfrq4     0.00000000E+00 Hartree
            rprim      8.6602540378E-01 -5.0000000000E-01  0.0000000000E+00
                       0.0000000000E+00  1.0000000000E+00  0.0000000000E+00
                       0.0000000000E+00  0.0000000000E+00  1.0000000000E+00
           shiftk1     0.00000000E+00  0.00000000E+00  5.00000000E-01
           shiftk2     0.00000000E+00  0.00000000E+00  0.00000000E+00
           shiftk3     0.00000000E+00  0.00000000E+00  0.00000000E+00
           shiftk4     0.00000000E+00  0.00000000E+00  0.00000000E+00
          spgroup           1
           tolwfr      1.00000000E-10
            typat      1  1  2  2  2  2
              wtk1       0.01563    0.01563    0.01563    0.01563    0.01563    0.01563
                         0.01563    0.01563    0.01563    0.01563    0.01563    0.01563
                         0.01563    0.01563    0.01563    0.01563    0.01563    0.01563
                         0.01563    0.01563    0.01563    0.01563    0.01563    0.01563
                         0.01563    0.01563    0.01563    0.01563    0.01563    0.01563
                         0.01563    0.01563    0.01563    0.01563    0.01563    0.01563
                         0.01563    0.01563    0.01563    0.01563    0.01563    0.01563
                         0.01563    0.01563    0.01563    0.01563    0.01563    0.01563
                         0.01563    0.01563
              wtk2       0.01563    0.01563    0.01563    0.01563    0.01563    0.01563
                         0.01563    0.01563    0.01563    0.01563    0.01563    0.01563
                         0.01563    0.01563    0.01563    0.01563    0.01563    0.01563
                         0.01563    0.01563    0.01563    0.01563    0.01563    0.01563
                         0.00781    0.01563    0.01563    0.01563    0.01563    0.01563
                         0.01563    0.01563    0.01563    0.01563    0.01563    0.01563
                         0.01563    0.01563    0.01563    0.01563    0.01563    0.01563
                         0.01563    0.01563    0.01563    0.01563    0.01563    0.01563
                         0.01563    0.01563
              wtk3       0.01563    0.01563    0.01563    0.01563    0.01563    0.01563
                         0.01563    0.01563    0.01563    0.01563    0.01563    0.01563
                         0.01563    0.01563    0.01563    0.01563    0.01563    0.01563
                         0.01563    0.01563    0.01563    0.01563    0.01563    0.01563
                         0.00781    0.01563    0.01563    0.01563    0.01563    0.01563
                         0.01563    0.01563    0.01563    0.01563    0.01563    0.01563
                         0.01563    0.01563    0.01563    0.01563    0.01563    0.01563
                         0.01563    0.01563    0.01563    0.01563    0.01563    0.01563
                         0.01563    0.01563
              wtk4       0.01563    0.01563    0.01563    0.01563    0.01563    0.01563
                         0.01563    0.01563    0.01563    0.01563    0.01563    0.01563
                         0.01563    0.01563    0.01563    0.01563    0.01563    0.01563
                         0.01563    0.01563    0.01563    0.01563    0.01563    0.01563
                         0.00781    0.01563    0.01563    0.01563    0.01563    0.01563
                         0.01563    0.01563    0.01563    0.01563    0.01563    0.01563
                         0.01563    0.01563    0.01563    0.01563    0.01563    0.01563
                         0.01563    0.01563    0.01563    0.01563    0.01563    0.01563
                         0.01563    0.01563
                       outvars : Printing only first  50 k-points.
           xangst     -2.3812974387E-07  6.8561204582E-04  1.3610132864E+01
                       1.2303421832E+00  2.1299904870E+00  1.3609929832E+01
                      -2.3812974387E-07  2.2013480830E-03  1.2386786576E+01
                      -2.3812974387E-07  1.4188380540E+00  1.2155007896E+01
                       1.2303233752E+00  2.1324792476E+00  1.2387302099E+01
                       1.2303382361E+00  3.5490075256E+00  1.2146211489E+01
            xcart     -4.5000000000E-07  1.2956190000E-03  2.5719423746E+01
                       2.3250097760E+00  4.0250986860E+00  2.5719040070E+01
                      -4.5000000000E-07  4.1599450000E-03  2.3407634295E+01
                      -4.5000000000E-07  2.6812153490E+00  2.2969636067E+01
                       2.3249742340E+00  4.0298017620E+00  2.3408608492E+01
                       2.3250023170E+00  6.7066522670E+00  2.2953013267E+01
             xred     -1.1174522070E-07  1.6083356246E-04  8.5731412487E-01
                       5.7735273454E-01  6.6642912455E-01  8.5730133567E-01
                      -1.1174522070E-07  5.1647218173E-04  7.8025447650E-01
                      -1.1174522070E-07  3.3290331906E-01  7.6565453557E-01
                       5.7734390865E-01  6.6701051706E-01  7.8028694973E-01
                       5.7735088230E-01  9.9937393652E-01  7.6510044223E-01
            znucl        1.00000    6.00000

================================================================================

 chkinp: Checking input parameters for consistency, jdtset=   1.

 chkinp: Checking input parameters for consistency, jdtset=   2.

 chkinp: Checking input parameters for consistency, jdtset=   3.

 chkinp: Checking input parameters for consistency, jdtset=   4.

================================================================================
== DATASET  1 ==================================================================
-   nproc =   12

 Exchange-correlation functional for the present dataset will be:
  LDA: new Teter (4/93) with spin-polarized option - ixc=1
 Citation for XC functional:
  S. Goedecker, M. Teter, J. Huetter, PRB 54, 1703 (1996)
 
 Real(R)+Recip(G) space primitive vectors, cartesian coordinates (Bohr,Bohr^-1):
 R(1)=  4.0270179 -2.3249998  0.0000000  G(1)=  0.2483227  0.0000000  0.0000000
 R(2)=  0.0000000  8.0540353  0.0000000  G(2)=  0.0716846  0.1241614  0.0000000
 R(3)=  0.0000000  0.0000000 30.0000000  G(3)=  0.0000000  0.0000000  0.0333333
 Unit cell volume ucvol=  9.7301232E+02 bohr^3
 Angles (23,13,12)=  9.00000000E+01  9.00000000E+01  1.20000000E+02 degrees

 getcut: wavevector=  0.0000  0.0000  0.0000  ngfft=  18  30 108
         ecut(hartree)=     15.000   => boxcut(ratio)=   2.06487

--- Pseudopotential description ------------------------------------------------
- pspini: atom type   1  psp file is /home/reinaldo/tiniba/pseudopotentials/pspnc/1h.pspnc
- pspatm: opening atomic psp file    /home/reinaldo/tiniba/pseudopotentials/pspnc/1h.pspnc
-  Troullier-Martins psp for element  H         Thu Oct 27 17:28:54 EDT 1994
-  1.00000   1.00000    940714                znucl, zion, pspdat
    1    1    0    0      2001   0.00000      pspcod,pspxc,lmax,lloc,mmax,r2well
    0   7.740  11.990    0   1.5855604        l,e99.0,e99.9,nproj,rcpsp
   0.00000000   0.00000000   0.00000000   0.00000000     rms, ekb1, ekb2, epsatm
    0.00000000000000    0.00000000000000    0.00000000000000   rchrg,fchrg,qchrg
 Note: local psp for atom with Z=  1.0
 pspatm: epsatm=    0.04198703
         --- l  ekb(1:nproj) -->
 pspatm: atomic psp has been read  and splines computed

- pspini: atom type   2  psp file is /home/reinaldo/tiniba/pseudopotentials/pspnc/6c.pspnc
- pspatm: opening atomic psp file    /home/reinaldo/tiniba/pseudopotentials/pspnc/6c.pspnc
-  Troullier-Martins psp for element  C         Thu Oct 27 17:29:33 EDT 1994
-  6.00000   4.00000    940714                znucl, zion, pspdat
    1    1    1    1      2001   0.00000      pspcod,pspxc,lmax,lloc,mmax,r2well
    0  10.372  24.987    1   1.4850707        l,e99.0,e99.9,nproj,rcpsp
   0.00000000   0.00000000   0.00000000   0.00000000     rms, ekb1, ekb2, epsatm
    1  15.431  21.987    0   1.4850707        l,e99.0,e99.9,nproj,rcpsp
   0.00000000   0.00000000   0.00000000   0.00000000     rms, ekb1, ekb2, epsatm
    0.83985002509544    0.99012430797080    0.51184907750884   rchrg,fchrg,qchrg
 pspatm: epsatm=    0.92590353
         --- l  ekb(1:nproj) -->
             0    4.921466
 pspatm: atomic psp has been read  and splines computed

   6.81765872E+01                                ecore*ucvol(ha*bohr**3)
--------------------------------------------------------------------------------

P newkpt: treating     10 bands with npw=    2693 for ikpt=   1 by node    0
P newkpt: treating     10 bands with npw=    2687 for ikpt=   2 by node    0
P newkpt: treating     10 bands with npw=    2680 for ikpt=   3 by node    0
P newkpt: treating     10 bands with npw=    2724 for ikpt=   4 by node    0
P newkpt: treating     10 bands with npw=    2732 for ikpt=   5 by node    0
P newkpt: treating     10 bands with npw=    2722 for ikpt=   6 by node    0
P newkpt: treating     10 bands with npw=    2707 for ikpt=   7 by node    1
P newkpt: treating     10 bands with npw=    2725 for ikpt=   8 by node    1
P newkpt: treating     10 bands with npw=    2721 for ikpt=   9 by node    1
P newkpt: treating     10 bands with npw=    2693 for ikpt=  10 by node    1
P newkpt: treating     10 bands with npw=    2706 for ikpt=  11 by node    1
P newkpt: treating     10 bands with npw=    2686 for ikpt=  12 by node    1
P newkpt: treating     10 bands with npw=    2680 for ikpt=  13 by node    2
P newkpt: treating     10 bands with npw=    2679 for ikpt=  14 by node    2
P newkpt: treating     10 bands with npw=    2713 for ikpt=  15 by node    2
P newkpt: treating     10 bands with npw=    2713 for ikpt=  16 by node    2
P newkpt: treating     10 bands with npw=    2724 for ikpt=  17 by node    2
P newkpt: treating     10 bands with npw=    2709 for ikpt=  18 by node    2
P newkpt: treating     10 bands with npw=    2691 for ikpt=  19 by node    3
P newkpt: treating     10 bands with npw=    2713 for ikpt=  20 by node    3
P newkpt: treating     10 bands with npw=    2724 for ikpt=  21 by node    3
P newkpt: treating     10 bands with npw=    2728 for ikpt=  22 by node    3
P newkpt: treating     10 bands with npw=    2716 for ikpt=  23 by node    3
P newkpt: treating     10 bands with npw=    2702 for ikpt=  24 by node    3
P newkpt: treating     10 bands with npw=    2724 for ikpt=  25 by node    4
P newkpt: treating     10 bands with npw=    2732 for ikpt=  26 by node    4
P newkpt: treating     10 bands with npw=    2724 for ikpt=  27 by node    4
P newkpt: treating     10 bands with npw=    2702 for ikpt=  28 by node    4
P newkpt: treating     10 bands with npw=    2725 for ikpt=  29 by node    4
P newkpt: treating     10 bands with npw=    2721 for ikpt=  30 by node    4
P newkpt: treating     10 bands with npw=    2693 for ikpt=  31 by node    5
P newkpt: treating     10 bands with npw=    2668 for ikpt=  32 by node    5
P newkpt: treating     10 bands with npw=    2669 for ikpt=  33 by node    5
P newkpt: treating     10 bands with npw=    2680 for ikpt=  34 by node    5
P newkpt: treating     10 bands with npw=    2695 for ikpt=  35 by node    5
P newkpt: treating     10 bands with npw=    2707 for ikpt=  36 by node    5
P newkpt: treating     10 bands with npw=    2716 for ikpt=  37 by node    6
P newkpt: treating     10 bands with npw=    2707 for ikpt=  38 by node    6
P newkpt: treating     10 bands with npw=    2695 for ikpt=  39 by node    6
P newkpt: treating     10 bands with npw=    2680 for ikpt=  40 by node    6
P newkpt: treating     10 bands with npw=    2684 for ikpt=  41 by node    6
P newkpt: treating     10 bands with npw=    2710 for ikpt=  42 by node    6
P newkpt: treating     10 bands with npw=    2718 for ikpt=  43 by node    7
P newkpt: treating     10 bands with npw=    2704 for ikpt=  44 by node    7
P newkpt: treating     10 bands with npw=    2700 for ikpt=  45 by node    7
P newkpt: treating     10 bands with npw=    2686 for ikpt=  46 by node    7
P newkpt: treating     10 bands with npw=    2713 for ikpt=  47 by node    7
P newkpt: treating     10 bands with npw=    2724 for ikpt=  48 by node    7
P newkpt: treating     10 bands with npw=    2728 for ikpt=  49 by node    8
P newkpt: treating     10 bands with npw=    2716 for ikpt=  50 by node    8
 newkpt: prtvol=0 or 1, do not print more k-points.
 
 setup2: Arith. and geom. avg. npw (full set) are    2701.016    2700.946

================================================================================

     iter   Etot(hartree)      deltaE(h)  residm     vres2
 ETOT  1  -24.134364098124    -2.413E+01 6.740E-02 4.711E+02
 ETOT  2  -24.336324376287    -2.020E-01 2.155E-02 4.621E+02
 ETOT  3  -24.340296409515    -3.972E-03 2.673E-02 4.093E+02
 ETOT  4  -24.318422148542     2.187E-02 4.089E-03 4.189E+02
 ETOT  5  -24.298504315965     1.992E-02 9.506E-04 4.371E+02
 ETOT  6  -24.346329941727    -4.783E-02 2.311E-03 4.257E+02
 ETOT  7  -24.376319007309    -2.999E-02 3.990E-03 1.082E+02
 ETOT  8  -24.385077205773    -8.758E-03 5.200E-04 1.795E+01
 ETOT  9  -24.386022199873    -9.450E-04 2.062E-04 8.144E+00
 ETOT 10  -24.386440275118    -4.181E-04 1.614E-04 1.961E+00
 ETOT 11  -24.386480071537    -3.980E-05 3.049E-05 1.606E+00
 ETOT 12  -24.386494816906    -1.475E-05 2.101E-05 1.138E+00
 ETOT 13  -24.386499227602    -4.411E-06 1.335E-05 9.723E-01
 ETOT 14  -24.386505583220    -6.356E-06 9.467E-06 7.409E-01
 ETOT 15  -24.386506639410    -1.056E-06 7.277E-06 5.525E-01
 ETOT 16  -24.386507264945    -6.255E-07 3.702E-06 4.327E-01
 ETOT 17  -24.386507342501    -7.756E-08 4.025E-06 3.753E-01
 ETOT 18  -24.386507509033    -1.665E-07 2.028E-06 2.884E-01
 ETOT 19  -24.386507679708    -1.707E-07 2.196E-06 2.435E-01
 ETOT 20  -24.386507692767    -1.306E-08 1.134E-06 1.906E-01
 ETOT 21  -24.386507686780     5.987E-09 1.203E-06 1.562E-01
 ETOT 22  -24.386507693877    -7.097E-09 6.214E-07 1.977E-01
 ETOT 23  -24.386507693794     8.312E-11 6.694E-07 1.963E-01
 ETOT 24  -24.386507690373     3.421E-09 3.461E-07 1.670E-01
 ETOT 25  -24.386507689388     9.852E-10 1.926E-07 1.485E-01
 ETOT 26  -24.386507688398     9.893E-10 1.072E-07 1.372E-01
 ETOT 27  -24.386507687789     6.088E-10 5.965E-08 1.298E-01
 ETOT 28  -24.386507687374     4.156E-10 3.318E-08 1.249E-01
 ETOT 29  -24.386507687299     7.439E-11 1.845E-08 1.215E-01
 ETOT 30  -24.386507687267     3.293E-11 1.026E-08 1.192E-01
 ETOT 31  -24.386507687244     2.235E-11 5.703E-09 1.176E-01
 ETOT 32  -24.386507687228     1.576E-11 3.170E-09 1.165E-01
 ETOT 33  -24.386507687157     7.103E-11 1.761E-09 1.158E-01
 ETOT 34  -24.386507687158    -1.073E-12 9.786E-10 1.152E-01
 ETOT 35  -24.386507687153     5.308E-12 5.436E-10 1.149E-01
 ETOT 36  -24.386507687153     4.050E-13 3.020E-10 1.146E-01
